LAMMPS data file via write_data, version 29 Sep 2021, timestep = 1000000

1800 atoms
10 atom types
1620 bonds
9 bond types
1800 angles
10 angle types
2160 dihedrals
12 dihedral types

0 31.1593 xlo xhi
0 31.7161 ylo yhi
0 30.9215 zlo zhi
1.94205101732187e-15 1.89339579999174e-15 1.89339579999174e-15 xy xz yz

Masses

1 12.01
2 12.01
3 12.01
4 12.01
5 12.01
6 12.01
7 14.01
8 14.01
9 14.01
10 14.01

Pair Coeffs # lj/cut/coul/long

1 0.076 3.55
2 0.076 3.55
3 0.066 3.3
4 0.066 3.3
5 0.066 3.3
6 0.066 3.3
7 0.17 3.2
8 0.17 3.2
9 0.17 3.2
10 0.17 3.2

Bond Coeffs # harmonic

1 400 1.426
2 400 1.426
3 400 1.426
4 400 1.426
5 549 1.34
6 650 1.16
7 650 1.16
8 650 1.16
9 650 1.16

Angle Coeffs # harmonic

1 70 116.8
2 70 116.8
3 70 121.6
4 70 121.6
5 70 121.6
6 70 121.6
7 70 178.9
8 70 178.9
9 70 178.9
10 70 178.9

Dihedral Coeffs # opls

1 0 0 0 0
2 0 0 0 0
3 0 0 0 0
4 0 0 0 0
5 0 0 0 0
6 0 0 0 0
7 0 0 0 0
8 0 0 0 0
9 0 14 0 0
10 0 14 0 0
11 0 14 0 0
12 0 14 0 0

Atoms # full

519 52 9 -0.358962 10.120477748287424 0.4587892403255647 8.084794811858865 0 1 0
99 10 9 -0.358962 6.0335099161143475 7.520206520350157 12.228202960706843 1 0 0
1297 130 5 0.404798 4.920860371419855 7.018087532603494 1.8448731234979034 1 0 1
591 60 1 -0.091672 1.3032490401585821 2.223563139386916 4.994414363362758 1 1 0
592 60 3 0.404798 2.215853266104404 2.520870774572586 3.9468043191331783 1 1 0
596 60 2 -0.091672 1.419565275143868 1.1070897681920493 5.754768804567426 1 1 0
1775 178 8 -0.358962 5.581225259911293 4.205942037478313 0.9403062245183031 1 1 1
1192 120 3 0.404798 1.6355615206161833 2.3752295355481183 14.033815710214032 1 1 0
1299 130 9 -0.358962 5.514303690968665 6.83687196069243 2.860567162128879 1 0 1
573 58 7 -0.358962 2.8162220482755944 2.739870331766943 7.818212494371129 1 1 0
1708 171 6 0.404798 8.44620928027651 0.4099669243963058 0.21739992838499592 0 1 1
579 58 9 -0.358962 5.3156504500070785 1.066069302863202 13.061859912368659 1 1 0
1090 109 10 -0.358962 8.040015471079386 0.9817197339764983 15.123540106271848 0 1 0
118 12 6 0.404798 2.3194956778819296 6.2383666679152965 5.521167518774717 1 0 0
490 49 10 -0.358962 8.22303769362847 0.8803890279042791 5.578707136185328 0 1 0
100 10 10 -0.358962 2.364923712049896 5.8853856918258485 10.006249201698466 1 0 0
97 10 5 0.404798 5.096039469647345 7.6488836899387325 11.505030808031453 1 0 0
117 12 5 0.404798 0.38892028801675327 6.744591470810666 7.0476075919505 1 0 0
510 51 10 -0.358962 7.965285438946467 0.7719744580743809 10.60202808781836 0 1 0
1296 130 2 -0.091672 4.104015743947089 7.386445601123826 0.7159908707868597 1 0 1
576 58 2 -0.091672 3.8892431780353345 1.3769069869392474 10.901460803732812 1 1 0
1776 178 2 -0.091672 4.1070428530015315 1.0116642847168593 0.5572019213027654 1 1 1
593 60 7 -0.358962 2.9210808250801947 2.6792616564855574 3.0670167708212723 1 1 0
1193 120 7 -0.358962 2.1722622560236533 2.890320250785963 13.124856256040895 1 1 0
30 3 10 -0.358962 7.634593452939702 7.154395370783518 9.475449026925297 0 0 0
1191 120 1 -0.091672 0.9851846120223464 1.9432848336955013 15.200235528010102 1 1 0
5 1 8 -0.358962 4.8152942296083445 2.215566149518685 5.40398525543111 0 0 0
571 58 1 -0.091672 3.8454531615157674 2.514155777680985 10.18860377555375 1 1 0
572 58 3 0.404798 3.2738975314319636 2.611994283308332 8.89410454662566 1 1 0
98 10 6 0.404798 3.1070279585496396 6.73559810342955 10.22865545380725 1 0 0
602 61 3 0.404798 6.763583300827953 4.017773667751771 14.187135524771797 0 0 0
574 58 4 0.404798 4.738795123103434 3.666349481002159 10.547050643980949 1 1 0
1227 123 5 0.404798 10.117693269326395 5.766816013412571 1.9066709590104867 0 0 1
120 12 10 -0.358962 3.0653819046020887 5.503901797837125 5.088153374142914 1 0 0
96 10 2 -0.091672 3.9905668705501935 7.817543252499005 10.533315804118839 1 0 0
9 1 9 -0.358962 5.464416582103442 5.555722875337634 7.762032389157569 0 0 0
601 61 1 -0.091672 5.952173330799985 3.967749449333829 15.378938091515865 0 0 0
603 61 7 -0.358962 7.478488360570046 4.0214081995110185 13.325924385946863 0 0 0
1777 178 5 0.404798 4.897295593408632 0.7778706000853285 1.704064608162243 1 1 1
577 58 5 0.404798 4.703442020438266 1.2009585986838904 12.086788692724824 1 1 0
4 1 4 0.404798 5.663190865773269 2.903894610968283 5.176984542162939 0 0 0
8 1 6 0.404798 7.723595485427458 5.933914674084142 5.191985588768905 0 0 0
10 1 10 -0.358962 8.409208189227773 6.806865256447462 4.85878894993436 0 0 0
515 52 8 -0.358962 10.088886005270787 4.089610806244329 6.083165212203784 0 1 0
1305 131 8 -0.358962 0.3450754945654668 2.6149093882912613 0.7792474269619771 1 0 1
575 58 8 -0.358962 5.507352854646549 4.495643574583001 10.84001241386332 1 1 0
116 12 2 -0.091672 1.2642875980166646 7.205635621704344 5.962781720921035 1 0 0
1 1 1 -0.091672 6.6860787455566095 3.8277408397813133 4.90799911032152 0 0 0
2 1 3 0.404798 7.40188390766468 3.5332995965513554 3.6798091369919805 0 0 0
6 1 2 -0.091672 6.896588037634934 4.888479181704907 5.672971145003973 0 0 0
26 3 2 -0.091672 8.852479100960254 5.447434994926683 11.00207049335117 0 0 0
720 72 10 -0.358962 2.9067011654633435 5.65912127954439 15.315756713224289 1 0 0
7 1 5 0.404798 6.036209826766706 5.3012152610102214 6.766181303568257 0 0 0
23 3 7 -0.358962 7.8550041951100456 3.285470117848242 8.551067143057146 0 0 0
3 1 7 -0.358962 8.034620846479113 3.254425460587137 2.725682564148935 0 0 0
28 3 6 0.404798 8.242895735145732 6.372114733391337 10.077448976966512 0 0 0
1298 130 6 0.404798 3.303667626240755 6.308448415306494 0.2068023128121315 1 0 1
578 58 6 0.404798 3.0908066033808406 0.22463691073698067 10.529723247785407 1 1 0
22 3 3 0.404798 8.332848966970067 3.6526382833851962 9.525517546604481 0 0 0
21 3 1 -0.091672 8.986575594370933 4.13442481603135 10.704599319326558 0 0 0
1221 123 1 -0.091672 9.218462772914897 4.48401060025539 0.06671742436926995 0 0 1
594 60 4 0.404798 0.283841712266931 3.165698558967333 5.278731178968336 1 1 0
27 3 5 0.404798 9.355772216621105 5.974255842705513 12.215403508202833 0 0 0
1774 178 4 0.404798 4.989648897407997 3.284449740577541 0.5634357748141403 1 1 1
29 3 9 -0.358962 9.794233261374703 6.447484650473771 13.17440577309896 0 0 0
1226 123 2 -0.091672 9.162842696581366 5.572128571936473 0.8534754359223066 0 0 1
597 60 5 0.404798 0.47975370929082206 0.7194221914913709 6.72013936499625 1 1 0
1224 123 4 0.404798 10.149973899630679 3.500540882305026 0.34019751763622835 0 0 1
598 60 6 0.404798 2.4325621530269106 0.11797287733150164 5.484074229772788 1 1 0
24 3 4 0.404798 9.832384056273668 3.228111600363105 11.360707840137803 0 0 0
1779 178 9 -0.358962 5.541213557812012 0.7705217412844574 2.6656365436527296 1 1 1
488 49 6 0.404798 7.471276595452875 0.027013689513648444 5.847946673972894 0 1 0
1228 123 6 0.404798 8.301729838148347 6.710132611003425 0.6345373473581094 0 0 1
1230 123 10 -0.358962 7.56444581824226 7.6571391949070655 0.5892147910891801 0 0 1
1114 112 4 0.404798 10.379361742526937 3.059304719357329 15.34302913691602 0 1 0
1778 178 6 0.404798 3.226277870441255 0.005907637032067937 0.019480034421545094 1 1 1
39 4 9 -0.358962 10.138345022657807 6.832691483250121 7.5155278369898015 0 0 0
1771 178 1 -0.091672 4.15589048426119 2.216045378077439 0.027870152313458768 1 1 1
1179 118 9 -0.358962 5.777767272976792 0.06981159791183977 23.34995266323619 1 1 0
705 71 8 -0.358962 0.49792163636524966 2.281450463983303 21.178506294268306 1 0 0
1177 118 5 0.404798 5.216445334903749 0.33683369482940023 22.418521198257416 1 1 0
709 71 9 -0.358962 0.4803856853755323 5.746946186813437 23.146620777161292 1 0 0
1791 180 1 -0.091672 1.3923228274288737 2.129645283036084 25.893074347356702 1 1 0
1792 180 3 0.404798 2.2498638060706013 2.543518818984092 24.81249113760709 1 1 0
1796 180 2 -0.091672 1.5175692379707773 0.9844489914420413 26.608808788535523 1 1 0
1222 123 3 0.404798 8.398761297971925 4.228475912208594 29.86298843570436 0 0 0
1239 124 9 -0.358962 9.739112756805298 6.776677137231877 28.446928987279193 0 0 0
1173 118 7 -0.358962 2.696304889932075 2.40633299313213 18.93450812754083 1 1 0
1715 172 8 -0.358962 9.993503304264237 3.8668403641057334 26.444718384680332 0 1 0
1773 178 7 -0.358962 2.8145520240113995 2.932600595224357 28.762580320906938 1 1 0
1197 120 5 0.404798 0.686845561015618 0.3943018649834721 17.137780545164695 1 1 0
621 63 1 -0.091672 9.401610322716136 4.411922482178409 20.911172463359403 0 0 0
1110 111 10 -0.358962 7.86347192733773 1.360617921973299 20.536547683928543 0 1 0
1318 132 6 0.404798 2.351086744189159 6.466574930450349 25.682581248057442 1 0 0
1194 120 4 0.404798 0.21507664831831116 2.997689077357983 15.79321229547866 1 1 0
1119 112 9 -0.358962 9.72320491371993 0.7521024368318886 17.979005271239824 0 1 0
700 70 10 -0.358962 2.5744491898903217 5.622659203359575 20.442080399983276 1 0 0
626 63 2 -0.091672 9.402086598108795 5.54899785758551 21.62949824936491 0 0 0
717 72 5 0.404798 0.5862770970144968 7.441872678238386 17.15872193856824 1 0 0
697 70 5 0.404798 5.206626523679112 6.886147304890575 22.36864308001784 1 0 0
628 63 6 0.404798 8.63783987985371 6.661863899498777 21.302278421080295 0 0 0
1797 180 5 0.404798 0.7810859034566948 0.737859919556698 27.745268770015155 1 1 0
1793 180 7 -0.358962 2.9667103039083664 2.748260057208763 23.98422809958847 1 1 0
1176 118 2 -0.091672 4.297145046426242 0.7104340219449166 21.422550668247332 1 1 0
1205 121 8 -0.358962 4.818030863576291 2.3159707472340862 26.56746197148788 0 0 0
1171 118 1 -0.091672 4.504070272296934 1.7982835400026105 20.604285237506897 1 1 0
1172 118 3 0.404798 3.5389090257898075 2.0916905551708864 19.66059317475771 1 1 0
630 63 10 -0.358962 7.967570561491025 7.54513961536503 20.993376546183935 0 0 0
1772 178 3 0.404798 3.4440861583831945 2.59588838888475 29.728040391816055 1 1 0
698 70 6 0.404798 3.3743055956877535 6.391650282646552 20.83066473060515 1 0 0
1174 118 4 0.404798 5.3676389836444285 2.917455650182917 20.931604367655986 1 1 0
1320 132 10 -0.358962 3.088929833052922 5.6263627032923225 25.289671278561546 1 0 0
609 61 9 -0.358962 4.741862915861626 4.962463998434509 18.455914003323205 0 0 0
1209 121 9 -0.358962 4.8053631082810915 5.790932642408008 28.368050441304817 0 0 0
1317 132 5 0.404798 0.8440256311948806 7.232818685321064 27.39175750016898 1 0 0
610 61 10 -0.358962 7.743856035558322 6.84362344277428 15.912000276269772 0 0 0
1108 111 6 0.404798 8.578213432138996 0.4454553443314555 20.702876390418204 0 1 0
1794 180 4 0.404798 0.4259261616145687 3.1192139082414494 26.191197737748414 1 1 0
1204 121 4 0.404798 5.532606192974817 3.1398884721860494 26.186778745626697 0 0 0
1208 121 6 0.404798 7.330626060307892 6.423778496140106 26.037901671662592 0 0 0
1196 120 2 -0.091672 1.1760461236077 0.7389656022343786 15.857029968889677 1 1 0
608 61 6 0.404798 7.051081316479112 5.9492642398611855 16.083806447626912 0 0 0
1690 169 10 -0.358962 8.352627995279736 0.6553926814272215 25.340089090158735 0 1 0
1210 121 10 -0.358962 8.05916865118064 7.202305416072289 25.655602254536827 0 0 0
639 64 9 -0.358962 9.904683742217363 7.25110178753569 18.602025739812753 0 0 0
622 63 3 0.404798 8.651538477350838 4.305011045604756 19.644396415271608 0 0 0
1175 118 8 -0.358962 6.034487045766781 3.8060367502371903 21.216036395849017 1 1 0
699 70 9 -0.358962 5.923858818479817 6.560647944078677 23.235837356132926 1 0 0
1201 121 1 -0.091672 6.342990816032438 4.2381017380259625 25.732775739587275 0 0 0
1202 121 3 0.404798 7.14435800283231 3.982527296045977 24.681904606734562 0 0 0
1206 121 2 -0.091672 6.422556543391839 5.379733451958345 26.395937244155405 0 0 0
607 61 5 0.404798 5.450404670046878 4.897123813786669 17.530023502754506 0 0 0
623 63 7 -0.358962 8.042243628787402 4.281030040412911 18.662891507150277 0 0 0
1207 121 5 0.404798 5.573123023484229 5.592610964380053 27.49426077793928 0 0 0
1223 123 7 -0.358962 7.715295006350898 4.035548665707933 28.950544084396437 0 0 0
1203 121 7 -0.358962 7.858017710635733 3.6627560658609424 23.797371099985213 0 0 0
696 70 2 -0.091672 4.321435865196225 7.268697938473473 21.284284086773187 1 0 0
606 61 2 -0.091672 6.203022638499621 4.8696269137420245 16.343097233688606 0 0 0
1316 132 2 -0.091672 1.448521241285214 7.476563376050178 26.16423177986767 1 0 0
627 63 5 0.404798 10.24824786465263 5.641103689893746 22.820308093933008 0 0 0
604 61 4 0.404798 4.942286544680877 2.977723989280172 15.542267155735185 0 0 0
1799 180 9 -0.358962 0.052336866424696274 0.6261380713814668 28.658082374956482 1 1 0
1710 171 10 -0.358962 7.79553139065583 1.1574108946386235 30.536654428266974 0 1 0
1719 172 9 -0.358962 10.277158872130022 0.12538108270563456 28.11244735299485 0 1 0
1319 132 9 -0.358962 0.3640620061629859 6.993147917460443 28.42985797697583 1 0 0
716 72 2 -0.091672 1.3894671319142966 7.63294202782702 15.98948890928923 1 0 0
624 63 4 0.404798 10.22635698107643 3.321204726293559 21.25661511704634 0 0 0
605 61 8 -0.358962 4.3009476715368935 1.9990708120427534 15.76985193215756 0 0 0
1798 180 6 0.404798 2.488472880414233 0.01580996760756854 26.375074904574348 1 1 0
1300 130 10 -0.358962 2.6694751938455537 5.424983623747851 30.758780987755397 1 0 0
718 72 6 0.404798 2.1794961916828086 6.531793962135933 15.537980114443766 1 0 0
1088 109 6 0.404798 7.287803603924386 0.24267509682700394 15.563723332472623 0 1 0
1115 112 8 -0.358962 9.535468108703371 3.8390371335268108 15.472190713423275 0 1 0
113 12 7 -0.358962 2.722311945094731 8.755585650369508 3.4198998856527925 1 0 0
1346 135 2 -0.091672 9.47583512629219 11.70152410064204 1.066846493398108 0 0 1
91 10 1 -0.091672 3.976563528132207 8.984986266146096 9.881738385265503 1 0 0
93 10 7 -0.358962 2.000561472659839 9.732504803756335 8.451833228136831 1 0 0
35 4 8 -0.358962 9.982301037387826 10.13907966144073 5.726150100951096 0 0 0
130 13 10 -0.358962 8.056021046066297 13.30601782565541 4.7109520915787755 0 0 0
141 15 1 -0.091672 9.30604636584206 10.475366156314813 10.086218472796073 0 0 0
1425 143 8 -0.358962 0.8400531050625853 8.798125207033344 0.541218759346436 1 0 1
159 16 9 -0.358962 9.403701384908787 13.258143007546517 7.651892263950226 0 0 0
231 24 1 -0.091672 1.6066486341069233 15.1405381856031 4.8933619240122335 1 0 0
236 24 2 -0.091672 1.6402758710208452 13.90451604466421 5.477245504591034 1 0 0
239 24 9 -0.358962 0.2013881100321998 13.267727075551347 7.550036329739713 1 0 0
1348 135 6 0.404798 8.595178244113653 12.814259502006049 0.8666550785982884 0 0 1
245 25 8 -0.358962 4.808677509491908 15.442162534357816 6.285773521113133 0 0 0
114 12 4 0.404798 0.19479528387752734 9.384526983020653 5.770769095965709 1 0 0
713 72 7 -0.358962 2.718426186011003 9.044597906911841 13.216671744904138 1 0 0
147 15 5 0.404798 10.122467838272026 11.638720947989874 11.994076482245369 0 0 0
213 22 7 -0.358962 2.5729993016076893 15.658018220283912 8.484806775896798 1 0 0
111 12 1 -0.091672 1.0739934702970402 8.314387117240543 5.349227486069559 1 0 0
238 24 6 0.404798 2.3669425288295547 12.806869222518019 4.95773472750457 1 0 0
220 22 10 -0.358962 2.368281571562936 12.071637121011655 10.76484096734625 1 0 0
833 84 7 -0.358962 2.4241042907192627 15.637123617132216 13.660211736729051 1 0 0
712 72 3 0.404798 1.96283383817505 8.965452826772193 14.099744702815435 1 0 0
216 22 2 -0.091672 3.973708908796563 14.039175660959518 11.303964423458488 1 0 0
217 22 5 0.404798 4.902130781464658 13.811808855429588 12.413072101607588 1 0 0
144 15 4 0.404798 10.12665394306353 9.333596507572784 10.322764431056397 0 0 0
146 15 2 -0.091672 9.200403968265329 11.44640232275863 10.961138128836637 0 0 0
1418 142 6 0.404798 3.163224040810975 12.900610426350646 0.19685028547733316 1 0 1
1417 142 5 0.404798 4.5984707497586506 13.818634956813606 1.8011428077701768 1 0 1
723 73 7 -0.358962 7.591716277320061 10.233653058546905 13.18269483663423 0 0 0
1291 130 1 -0.091672 4.269869929806575 8.550294550622155 0.08692253889020495 1 0 1
832 84 3 0.404798 1.8064214797543496 15.349497756078778 14.585533746015827 1 0 0
1295 130 8 -0.358962 5.532575897371989 10.433098987758386 1.2350982685186933 1 0 1
92 10 3 0.404798 2.903618109758573 9.361621421161214 9.043967068102674 1 0 0
232 24 3 0.404798 2.3116046468142533 15.547883058541283 3.676564963897214 1 0 0
94 10 4 0.404798 4.951701345159553 10.028833198606785 10.120185671423048 1 0 0
1416 142 2 -0.091672 3.936686824708889 13.954502609637007 0.5757032520559093 1 0 1
218 22 6 0.404798 3.07087339523897 12.983658903342526 10.94038245132519 1 0 0
225 23 8 -0.358962 0.2944408673943347 8.334594570467837 11.106617354755242 1 0 0
240 24 10 -0.358962 2.9969126672395663 11.887175921243044 4.542084716076205 1 0 0
142 15 3 0.404798 8.407983231472876 10.366913503390217 8.882889962325489 0 0 0
129 13 9 -0.358962 4.730009999596558 12.244545140896424 7.518137654325478 0 0 0
219 22 9 -0.358962 5.759160786055961 13.69663073213514 13.240764050659067 1 0 0
1419 142 9 -0.358962 5.103721301289094 13.861661807814045 2.8723558379145024 1 0 1
124 13 4 0.404798 5.390080208881971 9.43694777467493 5.600462780732891 0 0 0
128 13 6 0.404798 7.246225003580229 12.619779405492588 5.1269189633039245 0 0 0
1545 155 8 -0.358962 0.488234420912864 14.966236121503268 0.9546232529267085 1 0 1
150 15 10 -0.358962 7.57125845463543 13.450276680617826 10.551998312799482 0 0 0
95 10 8 -0.358962 5.7389723016172836 10.860175290540836 10.362772934334235 1 0 0
112 12 3 0.404798 1.9952417574833556 8.59827648362144 4.274623934579643 1 0 0
121 13 1 -0.091672 6.2723428815003235 10.420895503383491 5.050015811432129 0 0 0
122 13 3 0.404798 7.142919593512709 9.906176812622116 4.106755664323868 0 0 0
126 13 2 -0.091672 6.257052567413995 11.709971062707163 5.498505985812795 0 0 0
211 22 1 -0.091672 3.9757667060181308 15.170899634920726 10.581203313131596 1 0 0
722 73 3 0.404798 7.143186561045566 10.30635253437459 14.200027662860862 0 0 0
127 13 5 0.404798 5.3894512541613615 12.041722145507297 6.599445717008181 0 0 0
143 15 7 -0.358962 7.767537852054406 10.351686586981279 7.923269494674664 0 0 0
123 13 7 -0.358962 7.922496492739002 9.629398145353413 3.2834306841902245 0 0 0
148 15 6 0.404798 8.276750913397766 12.540500429645972 10.67536550625384 0 0 0
721 73 1 -0.091672 6.438945530331058 10.394352279901124 15.395388941458965 0 0 0
264 27 4 0.404798 9.698664496194864 15.792745175384207 11.00363064846805 0 0 0
212 22 3 0.404798 3.272950609647906 15.408406504095032 9.383982978268024 1 0 0
1350 135 10 -0.358962 7.895817808192521 13.700197337105513 0.558552322190847 0 0 1
157 16 5 0.404798 10.288913246476223 13.654603875507615 6.9717735247694765 0 0 0
229 23 9 -0.358962 0.09332659025960459 11.69847937634682 13.133318851554584 1 0 0
125 13 8 -0.358962 4.812531717846612 8.581662635362546 6.173250980111422 0 0 0
1294 130 4 0.404798 4.956155222943054 9.615275120650685 0.6854525479945365 1 0 1
345 35 8 -0.358962 0.5172547160111121 14.781287389521365 11.233016544565729 1 0 0
711 72 1 -0.091672 1.2032287827602084 8.738802887073643 15.289720135224522 1 0 0
237 24 5 0.404798 0.8540594381876738 13.588948259849962 6.596141516252655 1 0 0
1429 143 9 -0.358962 0.40852178197685085 11.495915068766902 3.169174427555185 1 0 1
1341 135 1 -0.091672 9.430081269058274 10.506349471803706 0.4477664455105504 0 0 1
265 27 8 -0.358962 10.161580409545007 14.949592856139999 11.674315458703168 0 0 0
1424 143 4 0.404798 0.1622986034029426 9.686847377248515 0.31611924709299605 1 0 1
1464 147 4 0.404798 9.920972716345528 15.747544521502787 0.8237412982961155 0 0 1
831 84 1 -0.091672 0.933416555371659 15.022486192576322 15.68515662110969 1 0 0
744 75 4 0.404798 10.293013654047892 9.409799917634011 21.057031743030137 0 0 0
1311 132 1 -0.091672 1.2856093844595209 8.62184433004371 25.52067994507552 1 0 0
748 75 6 0.404798 8.14476350474149 12.45257922139649 21.164821944450445 0 0 0
812 82 3 0.404798 3.152863356567702 15.142120239431236 19.621049969635724 1 0 0
1431 144 1 -0.091672 1.1513474203168221 14.922043406692191 25.751379861296392 1 0 0
714 72 4 0.404798 0.2960755425220199 9.77022555640389 15.699772756046364 1 0 0
1436 144 2 -0.091672 1.2941733630385017 13.758366299911154 26.38227885046092 1 0 0
1412 142 3 0.404798 3.005822059599737 15.423016021479636 29.74352016449449 1 0 0
1292 130 3 0.404798 3.5722963794394715 8.94860944552956 29.872613920537795 1 0 0
1413 142 7 -0.358962 2.407734733334021 15.5698920890534 28.815396436169884 1 0 0
1443 145 7 -0.358962 8.037465811225713 15.630279866075771 23.772685588038094 0 0 0
747 75 5 0.404798 9.976336495995104 11.763563464624674 22.602229958464918 0 0 0
1325 133 8 -0.358962 4.705758673786702 8.37891069947524 26.36117839923518 0 0 0
1323 133 7 -0.358962 7.812086604229239 9.871578697517835 23.802624174072964 0 0 0
728 73 6 0.404798 7.185560989843415 12.612698576270743 15.791246087921614 0 0 0
724 73 4 0.404798 5.6117525848027325 9.305499614367434 15.828158049165932 0 0 0
1327 133 5 0.404798 5.719165706038833 11.754652302535279 27.90520537362944 0 0 0
1438 144 6 0.404798 2.225833164802966 12.704645926162236 26.115113033295195 1 0 0
820 82 10 -0.358962 2.0621527237410255 11.87906358387632 20.517031985464765 1 0 0
1437 144 5 0.404798 0.5316096247353183 13.502022291592226 27.531241269136345 1 0 0
726 73 2 -0.091672 6.351749199508786 11.568461613037035 16.0810998649577 0 0 0
816 82 2 -0.091672 3.883435169298642 13.608373566093668 21.19070186162023 1 0 0
817 82 5 0.404798 4.642902248659985 13.250095927364294 22.352062197091875 1 0 0
1293 130 7 -0.358962 3.0109461401804456 9.36832294786635 28.93869554530345 1 0 0
836 84 2 -0.091672 0.9745364518159141 13.83100756895723 16.31418465072394 1 0 0
840 84 10 -0.358962 2.8341302982579317 12.084092757012645 15.703796881424672 1 0 0
1313 132 7 -0.358962 2.7270329045081123 9.484236876412275 23.556441436574428 1 0 0
845 85 8 -0.358962 4.974435254467091 15.323808322748995 16.400981381082772 0 0 0
1235 124 8 -0.358962 9.820688652059246 10.392237923450297 26.575234864400816 0 0 0
691 70 1 -0.091672 4.352648173773731 8.492681144741697 20.702842706460746 1 0 0
742 75 3 0.404798 8.583026458415489 10.085644189984235 19.64172665548589 0 0 0
1343 135 7 -0.358962 7.8406293575564465 10.285309834914697 29.32777790894107 0 0 0
811 82 1 -0.091672 3.965892921732953 14.812675565551283 20.693208105170342 1 0 0
1445 145 8 -0.358962 4.804752900943672 14.365989241542229 26.523526334929333 0 0 0
1342 135 3 0.404798 8.522402658500614 10.3545117972519 30.256890200083337 0 0 0
693 70 7 -0.358962 2.679629818516736 9.07397371351122 18.800470906067357 1 0 0
694 70 4 0.404798 5.3136770081287095 9.513403620426747 21.062303821120317 1 0 0
818 82 6 0.404798 2.9098035634113564 12.682859656808162 20.733790925176674 1 0 0
1440 144 10 -0.358962 2.994335277160484 11.839436326076052 26.00813145254217 1 0 0
729 73 9 -0.358962 5.028045292538399 11.676806575211044 18.293106255133868 0 0 0
1329 133 9 -0.358962 5.05205699584635 12.053484317400358 28.84549109908869 0 0 0
819 82 9 -0.358962 5.20571741115952 12.785557467297105 23.264903024424807 1 0 0
1314 132 4 0.404798 0.30713987913556895 9.530223074160306 25.989812708605783 1 0 0
1330 133 10 -0.358962 8.04634025997716 13.32511901938074 26.23468514557541 0 0 0
1324 133 4 0.404798 5.41885613479788 9.246761927223961 26.1869837549421 0 0 0
1328 133 6 0.404798 7.301516123083551 12.481537117888873 26.42211307646564 0 0 0
725 73 8 -0.358962 4.975913043326886 8.418994262655529 16.212711384512133 0 0 0
746 75 2 -0.091672 9.14315394833742 11.495744825702083 21.473940219258083 0 0 0
750 75 10 -0.358962 7.378939693540797 13.306332507878777 20.940108928445095 0 0 0
741 75 1 -0.091672 9.364026787360988 10.415842066339868 20.785552225585597 0 0 0
695 70 8 -0.358962 6.0151712856579875 10.28308511507748 21.494091532600343 1 0 0
945 95 8 -0.358962 0.40306181913749445 14.713956599090816 21.599046070949303 1 0 0
1321 133 1 -0.091672 6.353938630928346 10.316674790266376 25.94776139255166 0 0 0
1322 133 3 0.404798 7.2394508384735605 10.096745254946265 24.785723003797468 0 0 0
1326 133 2 -0.091672 6.456280363330238 11.409880180364393 26.726178566819716 0 0 0
727 73 5 0.404798 5.65019305725552 11.60634434239987 17.287110453596046 0 0 0
743 75 7 -0.358962 7.930895720195167 9.870101691131495 18.75301604687304 0 0 0
825 83 8 -0.358962 0.29146105283997636 8.703942449236076 21.355556129865136 1 0 0
1312 132 3 0.404798 2.027095677306875 9.056941012245398 24.398724167583474 1 0 0
692 70 3 0.404798 3.379456563472596 8.91290447934817 19.66304444012525 1 0 0
814 82 4 0.404798 4.859608948725026 15.803196714175126 21.240919231592965 1 0 0
634 64 4 0.404798 10.301556871112055 9.527481672156716 16.04128175978104 0 0 0
1420 142 10 -0.358962 2.5064451751936847 12.0677712396686 30.805592565462554 1 0 0
1433 144 7 -0.358962 2.4549971084597315 15.345831708908912 23.55657091826872 1 0 0
1432 144 3 0.404798 1.9117775711714793 15.227218533723859 24.548511698466886 1 0 0
813 82 7 -0.358962 2.471884249706137 15.516109152543594 18.759673091379906 1 0 0
1411 142 1 -0.091672 3.8620192289577617 15.187039233257842 30.907798513234155 1 0 0
838 84 6 0.404798 1.9713622558238217 12.835421502707312 15.952969118835126 1 0 0
635 64 8 -0.358962 9.586669636918788 10.370461043898437 16.386900146398794 0 0 0
837 84 5 0.404798 0.336522991906533 13.625545384067332 17.508393171755102 1 0 0
1444 145 4 0.404798 5.463243206800598 15.295646681269716 26.16601942948469 0 0 0
730 73 10 -0.358962 7.934730463713995 13.453045992913088 15.493467631743634 0 0 0
1359 136 9 -0.358962 10.041797894606194 13.144462326473228 28.906548627102808 0 0 0
759 76 9 -0.358962 9.7631313475103 13.824896926532281 18.39648601240059 0 0 0
1354 136 4 0.404798 10.298123476892167 15.752671363221573 26.28428983132774 0 0 0
1415 142 8 -0.358962 5.340194075761788 17.093141038525886 0.8775391872255843 1 0 1
843 85 7 -0.358962 7.873016378386743 16.86825581790656 13.512812031756459 0 0 0
351 36 1 -0.091672 1.3012259159238102 21.434209879125042 4.977885211083446 1 0 0
352 36 3 0.404798 2.1430011020478372 21.835227025001643 3.8253224902673475 1 0 0
356 36 2 -0.091672 1.4532400736899682 20.28238827160709 5.632820987824453 1 0 0
1468 147 6 0.404798 8.273399175176564 19.010359322759495 0.48441305716288874 0 0 1
952 96 3 0.404798 2.1399042877259236 21.649967375052466 14.549361566998373 1 0 0
333 34 7 -0.358962 2.939578935672833 21.785315105800343 8.542529183585737 1 0 0
357 36 5 0.404798 0.6531036876000041 19.938801079666447 6.797503664704161 1 0 0
1466 147 2 -0.091672 9.193573937334508 18.037819776553544 0.7467229536798613 0 0 1
354 36 4 0.404798 0.1762219081174461 22.2690586871631 5.392199126982104 1 0 0
1536 154 2 -0.091672 3.977617859800949 20.25204663221239 0.5178754942147169 1 0 1
262 27 3 0.404798 8.051181679494865 16.717835849249706 9.436193895960582 0 0 0
358 36 6 0.404798 2.4948056439110435 19.475017211034867 5.246650641843291 1 0 0
340 34 10 -0.358962 2.4660641958935257 18.106396699321532 10.747907479447859 1 0 0
336 34 2 -0.091672 4.133025776039717 20.11026700436878 11.28699510903449 1 0 0
337 34 5 0.404798 4.770124565980015 19.90696527965863 12.490294344866786 1 0 0
353 36 7 -0.358962 2.783471946803666 22.25667376733008 2.993855053723236 1 0 0
953 96 7 -0.358962 2.742276620818606 22.073407273845255 13.665551379465226 1 0 0
242 25 3 0.404798 6.840390121100095 17.24531199326901 4.155233406218176 0 0 0
1537 154 5 0.404798 4.560381238591214 19.87138402342548 1.7049807871592753 1 0 1
365 37 8 -0.358962 4.691858675964687 21.58296408793563 5.8134666187847985 0 0 0
331 34 1 -0.091672 4.20451736860756 21.314726264247884 10.732502441514177 1 0 0
332 34 3 0.404798 3.4764027484233786 21.61901937927031 9.544040142947836 1 0 0
362 37 3 0.404798 7.034047052663919 23.32724580690701 4.067584491151907 0 0 0
842 85 3 0.404798 7.255297680106367 17.13227395851211 14.463556419609317 0 0 0
334 34 4 0.404798 5.059392899896003 22.290736724343684 11.246039361077857 1 0 0
338 34 6 0.404798 3.1113415561297577 19.07775277327755 10.979042709826 1 0 0
214 22 4 0.404798 4.699121493090943 16.215842279599936 11.102749710172402 1 0 0
233 24 7 -0.358962 2.7147327463827757 15.997817866441167 2.7081536150611765 1 0 0
360 36 10 -0.358962 3.4813725422483053 18.85303184306777 5.0742032811079625 1 0 0
261 27 1 -0.091672 9.113274486279124 16.911699221782413 10.377365364633155 0 0 0
249 25 9 -0.358962 5.209932723356135 19.07395630072637 8.449684940560156 0 0 0
339 34 9 -0.358962 5.369056222509806 19.728642674891695 13.46441118443204 1 0 0
1539 154 9 -0.358962 4.982514480402446 19.493788807595354 2.672432494309912 1 0 1
248 25 6 0.404798 7.113420951043647 19.64808694138567 5.603367523255861 0 0 0
364 37 4 0.404798 5.299811285282895 22.503936621418816 5.556641010650848 0 0 0
270 27 10 -0.358962 8.113296372920015 20.212467019866867 10.200899235793953 0 0 0
215 22 8 -0.358962 5.281861265801285 17.095221250965327 11.602447326334719 1 0 0
381 39 1 -0.091672 9.407323171551564 23.402727004240024 10.36749462535783 0 0 0
361 37 1 -0.091672 6.24977390471426 23.511513018889985 5.281963192307553 0 0 0
234 24 4 0.404798 0.8445563088201976 16.26571716914833 5.446564312609856 1 0 0
267 27 5 0.404798 10.272080927072299 18.399447381007672 11.974836698967623 0 0 0
241 25 1 -0.091672 6.180062576364189 17.48270606751614 5.440765102907977 0 0 0
246 25 2 -0.091672 6.295937115583768 18.642889312866515 6.164363240251853 0 0 0
275 28 8 -0.358962 9.817257206062612 23.545997416862164 6.055775947987048 0 0 0
1414 142 4 0.404798 4.629996049669269 16.299168081995337 0.4712464173731736 1 0 1
383 39 7 -0.358962 7.612904389209254 22.97007489784455 8.633214617768518 0 0 0
382 39 3 0.404798 8.430086094402538 23.206371245218246 9.343146345683795 0 0 0
243 25 7 -0.358962 7.404128781668196 17.13432590080038 3.143834295100471 0 0 0
1535 154 8 -0.358962 5.63963432476704 23.282488764449845 1.0398085284847047 1 0 1
247 25 5 0.404798 5.701153949489982 18.886039020570355 7.457434303678053 0 0 0
266 27 2 -0.091672 9.407824042896062 18.166429038883788 10.894059782311434 0 0 0
263 27 7 -0.358962 7.2261464886790305 16.622444959683992 8.628108152883273 0 0 0
268 27 6 0.404798 8.67668720684833 19.29677366352485 10.60455615714219 0 0 0