LAMMPS data file via write_data, version 29 Sep 2021, timestep = 1000000

1600 atoms
10 atom types
1440 bonds
9 bond types
1600 angles
10 angle types
1920 dihedrals
12 dihedral types

0 33.607 xlo xhi
0 30.06 ylo yhi
0 26.8624861463132 zlo zhi
1.84064413911847e-15 -4.51934044293291 1.94469873082344e-15 xy xz yz

Masses

1 12.01
2 12.01
3 12.01
4 12.01
5 12.01
6 12.01
7 14.01
8 14.01
9 14.01
10 14.01

Pair Coeffs # lj/cut/coul/long

1 0.076 3.55
2 0.076 3.55
3 0.066 3.3
4 0.066 3.3
5 0.066 3.3
6 0.066 3.3
7 0.17 3.2
8 0.17 3.2
9 0.17 3.2
10 0.17 3.2

Bond Coeffs # harmonic

1 400 1.426
2 400 1.426
3 400 1.426
4 400 1.426
5 549 1.34
6 650 1.16
7 650 1.16
8 650 1.16
9 650 1.16

Angle Coeffs # harmonic

1 70 116.8
2 70 116.8
3 70 121.6
4 70 121.6
5 70 121.6
6 70 121.6
7 70 178.9
8 70 178.9
9 70 178.9
10 70 178.9

Dihedral Coeffs # opls

1 0 0 0 0
2 0 0 0 0
3 0 0 0 0
4 0 0 0 0
5 0 0 0 0
6 0 0 0 0
7 0 0 0 0
8 0 0 0 0
9 0 14 0 0
10 0 14 0 0
11 0 14 0 0
12 0 14 0 0

Atoms # full

82 9 3 0.404798 5.551220146419634 9.63633430022114 2.274162766345942 0 0 0
333 34 7 -0.358962 6.160343224880214 0.8359472914249116 8.843375409344183 0 1 0
155 16 8 -0.358962 0.32136978487549506 9.570528697391712 8.188712809820936 1 0 0
478 48 6 0.404798 -1.8406373654654733 7.615611753489686 12.350689064292325 1 0 0
405 41 8 -0.358962 2.315455283642571 0.49248110258022837 9.099114057267874 0 0 0
81 9 1 -0.091672 4.455728904172463 9.112648102077591 2.984547497042082 0 0 0
1533 154 7 -0.358962 6.9823193254536156 1.0409103319015145 2.2046596535892324 0 1 1
1271 128 1 -0.091672 0.3875525885734359 6.020460054071946 0.7670284837432261 1 0 1
74 8 4 0.404798 -0.21449380809356344 4.4432653730004805 7.674737688304843 1 0 0
75 8 8 -0.358962 0.2015395638189561 3.337185177069574 7.863245231026682 1 0 0
1274 128 4 0.404798 0.8529293859815119 4.812641161946634 1.3273841249347555 1 0 1
76 8 2 -0.091672 -0.28566154113945674 6.476627545247635 6.33947208431991 1 0 0
13 2 7 -0.358962 5.838788675922358 6.916035984755351 8.540132044693625 0 0 0
409 41 9 -0.358962 0.9441308713084746 2.3075005254616103 12.26096207413176 0 0 0
396 40 2 -0.091672 -0.654356238372823 0.24539656459182516 6.244951132508588 1 1 0
479 48 9 -0.358962 0.1565424644539546 5.373911813642963 10.965815791578782 1 0 0
487 49 5 0.404798 1.8964336261947385 9.133656896822167 11.823115413247857 0 0 0
477 48 5 0.404798 -0.5265451526770746 5.761415881306019 11.764151206398598 1 0 0
1213 122 7 -0.358962 7.4763794618677455 6.835567591443398 2.257880311778684 0 0 1
85 9 8 -0.358962 3.6576919417852833 6.796390133594475 2.213381285562274 0 0 0
485 49 8 -0.358962 2.1363402732348105 7.100721029321402 8.973518894386624 0 0 0
4 1 4 0.404798 3.567081874861163 1.7524204393217622 2.393358855511434 0 0 0
404 41 4 0.404798 2.6885577656264 1.5483629135947568 9.308618134808464 0 0 0
7 1 5 0.404798 3.1059179080687427 2.6611898616995058 4.949523582757424 0 0 0
9 1 9 -0.358962 2.5969010988850463 2.1206841806029173 5.816188663343682 0 0 0
407 41 5 0.404798 1.6840438462433118 2.832634047428079 11.540996972213373 0 0 0
340 34 10 -0.358962 7.129317372874806 2.397337929824396 5.430725841476919 0 1 0
1 1 1 -0.091672 4.18314049723544 2.9303568963865043 2.778871816173833 0 0 0
401 41 1 -0.091672 3.1192479794992503 2.9297609062478513 9.615214569179383 0 0 0
2 1 3 0.404798 4.871249758113261 3.6755507225592217 1.7731157517177247 0 0 0
3 1 7 -0.358962 5.3957750255926715 4.1772226592496 0.8152738014703783 0 0 0
402 41 3 0.404798 4.012639087032703 3.5726286033677956 8.637247434694366 0 0 0
403 41 7 -0.358962 4.741979391222149 4.113750975532108 7.866975502375729 0 0 0
6 1 2 -0.091672 3.9214143809299107 3.352455236965789 4.006123001836126 0 0 0
8 1 6 0.404798 4.451453784216257 4.619033863568464 4.4890997898500276 0 0 0
406 41 2 -0.091672 2.6777268741729077 3.474219885133051 10.736566312289085 0 0 0
408 41 6 0.404798 3.323191585725736 4.701739710456893 11.106086415774252 0 0 0
10 1 10 -0.358962 4.911922785578195 5.577403326027187 4.992520528229017 0 0 0
410 41 10 -0.358962 3.72841735539473 5.708000008531411 11.492912952540259 0 0 0
1275 128 8 -0.358962 1.165808804212091 3.7924913533261964 1.7776425574464827 1 0 1
87 9 5 0.404798 3.179560049374521 8.882066156485715 4.964011153280316 0 0 0
1355 136 8 -0.358962 1.4066968726700648 9.427799081590019 1.725129586680218 1 0 1
796 80 2 -0.091672 -1.8825311975998755 0.23737073501917222 12.899392913782492 1 1 0
481 49 1 -0.091672 3.2201650181361776 9.23273923031093 9.77761579641155 0 0 0
5 1 8 -0.358962 3.107036588070187 0.7058764997468358 2.216352190673101 0 0 0
484 49 4 0.404798 2.7113599637890946 8.01289907130437 9.329629761286855 0 0 0
20 2 10 -0.358962 6.988090432441018 8.412434406093084 5.1201449172937865 0 0 0
12 2 3 0.404798 6.684180464194098 6.417329171599001 7.9430524444864625 0 0 0
482 49 3 0.404798 4.110998005161841 9.832485121442758 8.90023378758519 0 0 0
79 8 9 -0.358962 1.432874506484115 5.484020123518357 4.6733983792913865 1 0 0
486 49 2 -0.091672 2.8101864394374063 9.78306478754901 10.936206706043121 0 0 0
86 9 2 -0.091672 4.123741023404414 9.543404875373621 4.176387422570748 0 0 0
84 9 4 0.404798 4.031841558894706 7.834042797075469 2.565930320822718 0 0 0
77 8 5 0.404798 0.7190706604912035 5.882476672684265 5.484367133003187 1 0 0
489 49 9 -0.358962 1.2240479814060246 8.538888844991176 12.574461416233776 0 0 0
89 9 9 -0.358962 2.364542804823761 8.372359007265327 5.654037140460535 0 0 0
476 48 2 -0.091672 -1.3966675336276413 6.293325577193593 12.6981480983419 1 0 0
71 8 1 -0.091672 -0.7388738360110099 5.784988796843485 7.450231100859933 1 0 0
1532 154 3 0.404798 7.610400392803623 0.49792900539679136 1.3902174356334498 0 1 1
420 42 10 -0.358962 5.968190637221743 8.476187132853543 11.544605056428038 0 0 0
83 9 7 -0.358962 6.433613736196047 9.93894767461517 1.6074410659439553 0 0 0
332 34 3 0.404798 6.833080812522485 0.24982568986713485 8.202948471916898 0 1 0
740 74 10 -0.358962 6.247615574748958 2.272453945282263 11.575382245276069 0 1 0
1592 160 3 0.404798 -0.16819791950356772 0.695005870677036 1.6465909546472108 1 1 1
1212 122 3 0.404798 8.084293100311795 6.185458065364441 1.5157236817396065 0 0 1
78 8 6 0.404798 -0.7500131410078896 7.718788610806635 5.985218315685352 1 0 0
813 82 7 -0.358962 4.108352742002928 6.350195142721701 22.458520481822106 0 0 0
877 88 5 0.404798 -1.7290299616679803 5.882647309173341 18.954867026308246 1 0 0
882 89 3 0.404798 3.1955350123078263 9.22689629696564 15.345715849410297 0 0 0
1276 128 2 -0.091672 -3.885528799907122 6.3333220444240785 26.364612142660814 1 0 0
732 74 3 0.404798 5.795449468034418 0.45502495981083557 14.816975606065096 0 1 0
412 42 3 0.404798 5.787916343543632 6.5310011540316335 14.601719981534105 0 0 0
812 82 3 0.404798 4.715666128265902 6.02665557205194 21.483136087631898 0 0 0
805 81 8 -0.358962 1.2171553654113745 0.24158134507176396 15.363096508347951 0 0 0
475 48 8 -0.358962 -1.2109993186608075 3.3876715311099352 14.688125434713928 1 0 0
1205 121 8 -0.358962 -0.3828631754394429 0.5243061780518581 22.22470478105108 0 0 0
874 88 4 0.404798 -2.7027351414833767 4.638683937184199 21.359298031185617 1 0 0
875 88 8 -0.358962 -2.2317769278861737 3.643004978260893 21.68222791521905 1 0 0
876 88 2 -0.091672 -2.657665826565271 6.505770761811121 19.75404934357751 1 0 0
879 88 9 -0.358962 -0.9353526433337427 5.29278393895328 18.321543723476395 1 0 0
1279 128 9 -0.358962 -2.496819550032231 4.858547050528816 24.725903345486017 1 0 0
1287 129 5 0.404798 -0.07092860995862793 8.33818828421073 25.281229568667285 0 0 0
1133 114 7 -0.358962 3.9427346179558302 0.8635907677835203 22.458112419523445 0 1 0
884 89 4 0.404798 1.7144142403656746 7.443737623554768 15.884236003638684 0 0 0
885 89 8 -0.358962 1.3060789125870857 6.433528725922709 15.54414706237298 0 0 0
1285 129 8 -0.358962 0.21725742284303884 6.481606962903603 22.06853005301362 0 0 0
804 81 4 0.404798 1.706487124066336 1.2830713667369031 15.567019401798524 0 0 0
1204 121 4 0.404798 0.228853570564298 1.517085022260815 22.487339133336594 0 0 0
807 81 5 0.404798 1.035671298096276 2.408620818936595 18.119237101392635 0 0 0
809 81 9 -0.358962 0.4484386820892978 1.7526350529896804 18.86695161556909 0 0 0
1207 121 5 0.404798 -0.22059152953819483 2.612463154192441 24.950406880584065 0 0 0
1209 121 9 -0.358962 -1.0048110133397743 2.1615229721771647 25.688177781095362 0 0 0
801 81 1 -0.091672 2.229937499321164 2.529909904914576 15.959817284967304 0 0 0
1201 121 1 -0.091672 0.9376919923833782 2.6122223868725167 22.80772948991274 0 0 0
802 81 3 0.404798 3.000485354306213 3.2481264322152574 15.047167599256596 0 0 0
803 81 7 -0.358962 3.495169605780025 3.953988744706558 14.283197270708518 0 0 0
1202 121 3 0.404798 1.7066503541063867 3.1021218811022844 21.7406954051454 0 0 0
1203 121 7 -0.358962 2.2951847057250325 3.475336093139784 20.769970966502942 0 0 0
806 81 2 -0.091672 1.913203157528999 3.0335937417019236 17.138800144285007 0 0 0
808 81 6 0.404798 2.4671595565403286 4.31442543061153 17.541640689283035 0 0 0
1206 121 2 -0.091672 0.6945880560110718 3.2061768442939735 24.019202101828146 0 0 0
1208 121 6 0.404798 1.3987670469584836 4.376480471275454 24.427269696372463 0 0 0
810 81 10 -0.358962 2.811106166114631 5.377531891667107 17.832974215301352 0 0 0
1210 121 10 -0.358962 1.981846122909051 5.299218669933453 24.76522234722598 0 0 0
471 48 1 -0.091672 -1.8755112891217838 5.726881707331317 13.85409925636797 1 0 0
1277 128 5 0.404798 -3.1313267032912346 5.467100230125983 25.486256533019773 1 0 0
474 48 4 0.404798 -1.5082505303655234 4.423094918121154 14.329925431858983 1 0 0
1220 122 10 -0.358962 3.60070524310214 8.42657881011064 25.72395306221206 0 0 0
555 56 8 -0.358962 -0.5193654625619817 9.679149027323927 14.99959887388781 1 0 0
1282 129 3 0.404798 1.9354979599816975 9.393621552247843 22.303537998681858 0 0 0
733 74 7 -0.358962 5.282892911434823 1.1459880386539292 15.572112445029152 0 1 0
871 88 1 -0.091672 -3.1450484778193464 5.92265016033675 20.908410895263167 1 0 0
881 89 1 -0.091672 2.3378816384901238 8.680701308011733 16.294555552831508 0 0 0
1196 120 2 -0.091672 -2.818607712661086 0.07246440748207639 19.39071666454411 1 1 0
1284 129 4 0.404798 0.5186650499777814 7.502234794382655 22.534380527064407 0 0 0
886 89 2 -0.091672 2.0840920906423666 9.220298390888791 17.485201221739164 0 0 0
889 89 9 -0.358962 0.5706287254166873 8.01435945042548 19.188074973336033 0 0 0
1286 129 2 -0.091672 0.7639117588731299 9.093918334190734 24.336914534527036 0 0 0
1281 129 1 -0.091672 0.9732829767707867 8.745783997641716 23.115265089032516 0 0 0
1289 129 9 -0.358962 -0.6700096615179825 7.864232845087462 26.10594584111167 0 0 0
887 89 5 0.404798 1.2271519192433318 8.510049928262676 18.370796158439873 0 0 0
1140 114 10 -0.358962 4.964818091104094 1.9172116332299887 18.430071758344276 0 1 0
1538 154 6 0.404798 3.942835341764349 1.5654289623367497 25.713870384308755 0 1 0
1132 114 3 0.404798 4.630221490365932 0.3275273235141412 21.729853920764842 0 1 0
955 96 8 -0.358962 -2.161235543021733 9.298708805310815 22.213581635522747 1 0 0
1540 154 10 -0.358962 3.491987279162335 2.568813273700913 25.409640407083373 0 1 0
820 82 10 -0.358962 4.950473317424512 8.393363785708367 18.83171160321323 0 0 0
1596 160 2 -0.091672 -3.603507680584086 0.3989975716825699 26.392184305565358 1 1 0
413 42 7 -0.358962 5.2729861542582785 7.127437107466816 15.456435294816504 0 0 0
1278 128 6 0.404798 -4.146897676245821 7.672384828452879 25.857096740557758 1 0 0
883 89 7 -0.358962 3.910169834483239 9.504524791022162 14.467039623563364 0 0 0
1598 160 6 0.404798 -4.004638626487322 1.7147841071487688 25.93534893955537 1 1 0
1283 129 7 -0.358962 2.6802917458881526 9.91693403354358 21.580028190413127 0 0 0
1434 144 4 0.404798 0.8977891837177715 16.50633843366439 1.0069241886473859 1 0 1
636 64 2 -0.091672 -1.632704526095523 18.322940808131545 13.045321357575094 1 0 0
567 57 5 0.404798 2.006258779919106 14.82981198591732 11.596869163650029 0 0 0
562 57 3 0.404798 4.168280763551616 15.48211517593478 8.573852482708132 0 0 0
172 18 3 0.404798 6.649169735056958 18.4216777153218 7.8066089864100086 0 0 0
556 56 2 -0.091672 -1.4955057429646392 12.435442697103113 13.207436332087834 1 0 0
500 50 10 -0.358962 5.809403165519877 14.673539244308659 12.20713302064256 0 0 0
93 10 7 -0.358962 6.299950103206613 13.190872769929273 9.24973216153946 0 0 0
1293 130 7 -0.358962 7.484548396813433 13.243962910658095 1.8949126677216719 0 0 1
488 49 6 0.404798 3.3045251980387866 11.05333723953896 11.333002126241185 0 0 0
231 24 1 -0.091672 -0.9416642383831408 17.769180465100725 7.613367920128232 1 0 0
157 16 5 0.404798 0.14513255838649286 11.606779066574214 5.496947255862487 1 0 0
557 56 5 0.404798 -0.6669017030596391 11.780613886071858 12.202462346864769 1 0 0
165 17 8 -0.358962 3.3428794824231267 12.23213312617169 2.270527214046007 0 0 0
565 57 8 -0.358962 2.4425580855871223 12.532277471198723 8.738009657297223 0 0 0
1435 144 8 -0.358962 1.2248851291376868 15.461414041601925 1.381431889896007 1 0 1
164 17 4 0.404798 3.703046113951438 13.26927706733475 2.4843603471302123 0 0 0
564 57 4 0.404798 2.864436280430745 13.520199125083018 9.10037814714874 0 0 0
561 57 1 -0.091672 3.2757719487194286 14.888951497632666 9.491368098531845 0 0 0
88 9 6 0.404798 4.71843030196628 10.66461628834795 4.800849252126378 0 0 0
570 57 10 -0.358962 4.019283637940447 17.531399564637017 11.451473055503362 0 0 0
1432 144 3 0.404798 -0.1303116621813468 18.546386540777338 1.6317429809146915 1 0 1
173 18 7 -0.358962 5.858754686467039 18.934979984509834 8.523470310873817 0 0 0
236 24 2 -0.091672 -0.7156772656972237 18.31211844997452 6.394679745108899 1 0 0
170 17 10 -0.358962 4.906171998907185 17.290615464710378 4.6898781814640635 0 0 0
90 9 10 -0.358962 5.078312390253246 11.631838352171757 5.312696650841834 0 0 0
490 49 10 -0.358962 3.688717088831363 12.105072385072523 11.596054327842316 0 0 0
568 57 6 0.404798 3.479668030081546 16.650060534006023 11.018262518277874 0 0 0
1373 138 7 -0.358962 7.180076129940573 19.04796960690047 2.0773834260111275 0 0 1
151 16 1 -0.091672 -0.6713107578234484 11.872798248810982 7.731761284162152 1 0 0
569 57 9 -0.358962 1.2319493315032943 14.336374247227294 12.31765401720193 0 0 0
169 17 9 -0.358962 2.534709732376394 13.781499908576782 5.846577513494628 0 0 0
167 17 5 0.404798 3.029603773745609 14.34408205927137 4.945912199394019 0 0 0
161 17 1 -0.091672 4.098928597718752 14.573569527698192 2.795517779547522 0 0 0
235 24 8 -0.358962 -0.12211372854433833 15.385986406586701 8.171123904619849 1 0 0
563 57 7 -0.358962 4.871565816870725 16.017477763445516 7.833709879736796 0 0 0
162 17 3 0.404798 4.862715682358992 15.299214998290475 1.9255483889392244 0 0 0
100 10 10 -0.358962 6.934597387875335 14.857584053963858 5.270990974708753 0 0 0
244 25 4 0.404798 3.9612364390181662 19.033286304620454 2.3700335974918594 0 0 0
166 17 2 -0.091672 3.8261860322413366 15.041453548411573 4.015624101635245 0 0 0
154 16 4 0.404798 -0.11399222582458357 10.625198945289904 8.082450720998997 1 0 0
163 17 7 -0.358962 5.602108728061674 15.77959081276181 1.1676994803384846 0 0 0
234 24 4 0.404798 -0.4519276594458326 16.456786254117723 7.908834485068015 1 0 0
237 24 5 0.404798 0.29363775423259897 17.814951410466737 5.460087149212481 1 0 0
1431 144 1 -0.091672 0.4856113647147003 17.76571921915566 0.6633665082792942 1 0 1
239 24 9 -0.358962 1.0691221455222688 17.30118830515646 4.712971163014428 1 0 0
639 64 9 -0.358962 -0.4741994468413333 16.962048990296864 11.111762069612304 1 0 0
637 64 5 0.404798 -0.9933975290366692 17.54597826455073 12.00501151735118 1 0 0
245 25 8 -0.358962 3.6192468168361502 17.98608338102439 2.176849538107808 0 0 0
645 65 8 -0.358962 1.9442497301966584 18.5935195565913 8.916027445555546 0 0 0
559 56 9 -0.358962 0.016307175723149436 11.244416199394838 11.425993491561634 1 0 0
159 16 9 -0.358962 0.6247085614975664 11.111256218782685 4.5452786589597896 1 0 0
156 16 2 -0.091672 -0.5478644396685461 12.28279105765933 6.4852787440976725 1 0 0
566 57 2 -0.091672 2.8778901519001616 15.444342844329402 10.612518611329424 0 0 0
168 17 6 0.404798 4.357647467035287 16.299249046229033 4.37694569305818 0 0 0
644 65 4 0.404798 2.359568410543673 19.63980095551957 9.254186955655712 0 0 0
1354 136 4 0.404798 0.9933211585736381 10.446986673199515 1.3311366126633146 1 0 1
1351 136 1 -0.091672 0.49032344221207413 11.76997054780962 0.9423792470781523 1 0 1
483 49 7 -0.358962 4.944110033165831 10.125258591570777 8.252441941981083 0 0 0
249 25 9 -0.358962 2.786943398183353 19.833195706164265 5.679713803553918 0 0 0
92 10 3 0.404798 6.936710855916977 12.741123039185329 8.37631666534659 0 0 0
152 16 3 0.404798 -1.3742153268021235 12.582288031948476 8.676107827630682 1 0 0
1372 138 3 0.404798 7.949115259910655 18.590424888331842 1.341194075887025 0 0 1
178 18 6 0.404798 7.045561845694788 19.27916228508854 5.267118982448487 0 0 0
498 50 6 0.404798 6.2263529185623945 13.610779558222909 12.468593553385134 0 0 0
98 10 6 0.404798 7.387572499398959 13.905379126519618 5.791155839622958 0 0 0
1352 136 3 0.404798 -0.31025543690876295 12.428782849100326 1.845002621517434 1 0 1
551 56 1 -0.091672 -1.6779892229110809 11.947136060050243 14.41937765844616 1 0 0
973 98 7 -0.358962 3.6567933294635475 19.340546168927762 22.233761932301793 0 0 0
1369 137 9 -0.358962 -1.0895466600490935 14.342002603954809 25.87347669787317 0 0 0
1361 137 1 -0.091672 0.967297604637984 14.807103402015967 22.989123494392178 0 0 0
1288 129 6 0.404798 1.258909783349095 10.420692195951066 24.84965877917782 0 0 0
1436 144 2 -0.091672 -3.989383685965362 18.193236595422984 26.26278226287528 1 0 0
888 89 6 0.404798 2.542076869636397 10.518968633609058 17.90803178995391 0 0 0
554 56 4 0.404798 -0.9786352756417449 10.75011108859901 14.794600530563237 1 0 0
1038 104 6 0.404798 -2.7574179149389777 19.405451391121588 19.346496485974875 1 0 0
957 96 5 0.404798 -1.62835789927761 11.376924286288984 19.301613369230957 1 0 0
1356 136 2 -0.091672 -3.752313221695609 12.265929179753485 26.57211038610424 1 0 0
1357 136 5 0.404798 -2.9250212088806093 11.618442931695059 25.661427398306643 1 0 0
965 97 8 -0.358962 1.7780091576284685 12.660471247941087 15.304722258515984 0 0 0
1365 137 8 -0.358962 0.043705987329797136 12.42657825450393 22.200520679645397 0 0 0
964 97 4 0.404798 2.0279879452707634 13.732656456710126 15.596099967165577 0 0 0
1364 137 4 0.404798 0.48571669503319503 13.475935260143816 22.620300075173535 0 0 0
492 50 3 0.404798 5.685005855602814 12.418112870877502 14.837162816302778 0 0 0
956 96 2 -0.091672 -2.5863795253445194 12.05236717945835 20.14120193782427 1 0 0
1044 105 4 0.404798 1.5186285806065096 19.655809042667563 15.889697575189064 0 0 0
959 96 9 -0.358962 -0.8852418659184158 10.91623236403829 18.535628547785354 1 0 0
969 97 9 -0.358962 0.3676425676137929 14.220191612788394 18.594388010430112 0 0 0
972 98 3 0.404798 4.353720551632433 18.58677559885382 21.654116567157786 0 0 0
954 96 4 0.404798 -2.5988736272653012 10.322859456810988 21.878849384264672 1 0 0
890 89 10 -0.358962 2.88634774150009 11.567392768769889 18.2431077356584 0 0 0
1290 129 10 -0.358962 1.530294871217749 11.490067548504081 25.108757117608647 0 0 0
970 97 10 -0.358962 2.8209601682884826 17.837493312845453 18.139193440552567 0 0 0
634 64 4 0.404798 -1.1585691845046433 16.473088579605214 14.505972696212572 1 0 0
1300 130 10 -0.358962 4.00150131832595 14.70759994429414 24.940964868655417 0 0 0
493 50 7 -0.358962 5.0799770324036135 13.200913914337638 15.411345740923547 0 0 0
1367 137 5 0.404798 -0.2839591903095471 14.79384400847406 25.15466506501589 0 0 0
635 64 8 -0.358962 -0.8695778098606166 15.346883440989666 14.72478478646118 1 0 0
967 97 5 0.404798 1.1882920040100666 14.805311847817991 18.07242215600287 0 0 0
961 97 1 -0.091672 2.394050280442878 15.081502779309677 16.055626480364992 0 0 0
1362 137 3 0.404798 1.7285469550016286 15.443819105090185 21.928438796648507 0 0 0
1039 104 9 -0.358962 -0.8923457111218962 16.89069855767767 18.0509586177132 1 0 0
966 97 2 -0.091672 2.0876778301879515 15.515980066725955 17.29010649376279 0 0 0
962 97 3 0.404798 3.035087714521616 15.833013352127846 15.051915269292168 0 0 0
1359 136 9 -0.358962 -2.0725790703275453 11.079842649209096 24.962876102790545 1 0 0
1034 104 4 0.404798 -2.5096341069567614 16.23220496791055 21.29630176570829 1 0 0
1449 145 9 -0.358962 -1.2394712773794017 19.753710611356897 25.98670498181484 0 0 0
1035 104 8 -0.358962 -2.134265110891435 15.257656135298202 21.695012817445196 1 0 0
1363 137 7 -0.358962 2.256859279891664 15.945710635772253 20.976131472889275 0 0 0
963 97 7 -0.358962 3.611146996122527 16.511654663130493 14.2703911770064 0 0 0
1439 144 9 -0.358962 -2.939263009500867 16.695925930844023 24.446933834761012 1 0 0
1037 104 5 0.404798 -1.531943919313769 17.378933550728703 18.857624798086984 1 0 0
1437 144 5 0.404798 -3.451481378081531 17.311386741211525 25.280047668732923 1 0 0
1045 105 8 -0.358962 0.7791842128061282 18.84359650259667 15.556249919909177 0 0 0
1445 145 8 -0.358962 -0.14925757014412389 18.39299716013103 22.5551355009268 0 0 0
1368 137 6 0.404798 1.1934023072567532 16.630208862649745 24.611437025735608 0 0 0
958 96 6 0.404798 -3.04556491700191 13.334545842024836 19.66275532757112 1 0 0
1031 104 1 -0.091672 -2.906264537424097 17.50798345804041 20.792222661883386 1 0 0
1370 137 10 -0.358962 1.7069079717229547 17.689111115618 24.862888722782863 0 0 0
1366 137 2 -0.091672 0.6390321211606862 15.33195405879638 24.164523334433756 0 0 0
968 97 6 0.404798 2.542271376082423 16.828736214337564 17.734827173805318 0 0 0
631 64 1 -0.091672 -1.736695453211553 17.767505023025645 14.238625238534866 1 0 0
573 58 7 -0.358962 5.241543686784276 19.183157530719342 15.74373273532919 0 0 0
893 90 7 -0.358962 4.237472761564353 13.433907243025281 22.116191624812274 0 0 0
1444 145 4 0.404798 0.25593897142999467 19.404508842829493 22.96822753910032 0 0 0
951 96 1 -0.091672 -3.0306450218450713 11.522111117414616 21.30898355340758 1 0 0
1036 104 2 -0.091672 -2.396704313588441 18.08485927824507 19.704251610515083 1 0 0
1378 138 6 0.404798 3.9995149611249374 19.642308735625825 25.57378707826464 0 0 0
632 64 3 0.404798 -2.408248103797116 18.46761197910741 15.277795522497707 1 0 0
552 56 3 0.404798 -2.4981476869158925 12.556842077295125 15.409911618873933 1 0 0
1514 152 4 0.404798 0.7491811418488012 22.1915590038245 1.0901609796248555 1 0 1
315 32 8 -0.358962 -0.12114809588931985 21.480790905860903 8.280684856711739 1 0 0
1515 152 8 -0.358962 1.2815428411477876 21.338739336116646 1.5344257549147444 1 0 1
716 72 2 -0.091672 -1.7801171048310913 24.451997766455705 12.718918640155552 1 0 0
719 72 9 -0.358962 -0.24390428894766858 23.18884867344287 11.068962671707293 1 0 0
311 32 1 -0.091672 -1.1054880844657935 23.80469372871614 7.5700993708432955 1 0 0
797 80 5 0.404798 -0.8985923496011368 29.734820832845998 12.007786319720848 1 0 0
330 33 10 -0.358962 4.754021610618413 29.811761232263873 4.913312246921281 0 0 0
641 65 1 -0.091672 3.0137949428369692 20.895249576575935 9.551208212431503 0 0 0
1591 160 1 -0.091672 0.472531659530818 29.90656519652962 0.7278856285412878 1 0 1
242 25 3 0.404798 5.120220401842705 21.150111196957457 1.7661978566744223 0 0 0
642 65 3 0.404798 3.8930208739367016 21.52777701689404 8.613939736627007 0 0 0
246 25 2 -0.091672 3.8978548547794443 21.06828462641434 3.701669646080087 0 0 0
399 40 9 -0.358962 0.6672395601358169 28.87124316024137 4.55695050382794 1 0 0
646 65 2 -0.091672 2.7027374039132583 21.471726518897064 10.742855880225415 0 0 0
643 65 7 -0.358962 4.473169788382481 22.20854194478155 7.841781805690789 0 0 0
243 25 7 -0.358962 5.869375119868855 21.70334505593703 1.0006400464733907 0 0 0
717 72 5 0.404798 -0.8943228318873762 23.826871589007524 11.835313265178296 1 0 0
1453 146 7 -0.358962 7.174576242818088 25.006329633322515 2.080436299139774 0 0 1
319 32 9 -0.358962 0.673701953632483 23.07841485222684 4.663292265906851 1 0 0
650 65 10 -0.358962 4.011440838494096 23.57530523190287 11.42930787567254 0 0 0
248 25 6 0.404798 4.23968387900353 22.361470200609716 4.068153288722655 0 0 0
1511 152 1 -0.091672 0.12653918343745252 23.309479659487383 0.5450817374263548 1 0 1
799 80 9 -0.358962 -0.18217133655698126 29.196107569112357 11.212699340994401 1 0 0
1452 146 3 0.404798 7.80758389603409 24.499342479170323 1.2330881784168732 0 0 1
247 25 5 0.404798 3.254596392982563 20.33602789888009 4.759489725221597 0 0 0
253 26 7 -0.358962 5.978349157461912 25.10470924293084 8.588495424521813 0 0 0
394 40 4 0.404798 -0.3599886617030381 28.720527241033654 8.010424310147119 1 0 0
395 40 8 -0.358962 -0.08695134774770663 27.679242568905682 8.425856272982584 1 0 0
728 73 6 0.404798 3.475095739578463 28.49273484568242 11.104940572224853 0 0 0
1594 160 4 0.404798 0.7929197573305594 28.603563882300296 1.1202957001115035 1 0 1
1595 160 8 -0.358962 1.0544706074893255 27.54127105641844 1.5597620151314304 1 0 1
648 65 6 0.404798 3.4190171477230367 22.60094502648643 11.22487358220088 0 0 0
314 32 4 0.404798 -0.5784583172179227 22.51804293360061 7.999989721909551 1 0 0
729 73 9 -0.358962 1.5155676894258199 25.838433585434377 12.257040575349567 0 0 0
258 26 6 0.404798 7.101685343801088 25.385355678732278 5.291338126070644 0 0 0
730 73 10 -0.358962 4.059997751727117 29.478753307192726 11.314389550416806 0 0 0
180 18 10 -0.358962 6.567528397807621 20.33296318466057 5.041733839562012 0 0 0
726 73 2 -0.091672 2.851326878425537 27.321564611511903 10.611971435891745 0 0 0
317 32 5 0.404798 0.1317693697614889 23.722812249658336 5.518986484968476 1 0 0
316 32 2 -0.091672 -0.737677756408134 24.443207824175694 6.462601330331988 1 0 0
252 26 3 0.404798 6.58271034118703 24.422884379147185 7.867233489718755 0 0 0
250 25 10 -0.358962 4.6643069422188015 23.409929423831425 4.249732907443286 0 0 0
325 33 8 -0.358962 2.927012348984499 24.703686214467318 2.2115212075319697 0 0 0
725 73 8 -0.358962 2.1173217727501052 24.647987610912836 8.698909350922902 0 0 0
324 33 4 0.404798 3.4787645573743977 25.68108389625288 2.537372191468423 0 0 0
724 73 4 0.404798 2.535104702012836 25.720291632669312 8.947995165103253 0 0 0
327 33 5 0.404798 3.1996011844258145 26.751441266017657 5.036524953153361 0 0 0
329 33 9 -0.358962 2.6136231148860727 26.20556778640999 5.926478295274087 0 0 0
727 73 5 0.404798 2.1683325174232557 26.465334139852413 11.519123943859224 0 0 0
321 33 1 -0.091672 4.008547449938031 26.938458958153447 2.811069903402021 0 0 0
721 73 1 -0.091672 3.000800741444452 26.971553622105965 9.333123483588373 0 0 0
322 33 3 0.404798 4.668333116262141 27.69215939334832 1.8485146781952952 0 0 0
323 33 7 -0.358962 5.222164378212942 28.38177456893189 1.0465174580938752 0 0 0
722 73 3 0.404798 3.889769003198735 27.700147800280124 8.423210021062747 0 0 0
723 73 7 -0.358962 4.510285122928684 28.245696574533923 7.620669952378849 0 0 0
326 33 2 -0.091672 3.811455120470525 27.52855715104794 4.019904103288881 0 0 0
328 33 6 0.404798 4.364331864410934 28.83487239706874 4.392065473109144 0 0 0
241 25 1 -0.091672 4.286933961396633 20.421951222822567 2.650132504710272 0 0 0
647 65 5 0.404798 1.819089140132245 20.725592666515375 11.65732531065604 0 0 0
391 40 1 -0.091672 -0.952436982930988 29.905429043943567 7.504041865755016 1 0 0
580 58 10 -0.358962 5.866046920748181 20.57688966289402 12.017925401240165 0 0 0
660 66 10 -0.358962 6.023786449954198 26.457176333282366 11.44789143287204 0 0 0
397 40 5 0.404798 0.05285782191993382 29.579777957714573 5.2021972658367215 1 0 0
260 26 10 -0.358962 6.502058733077051 26.325030414014073 4.920142757395093 0 0 0
649 65 9 -0.358962 1.1472817196435048 20.1397874754212 12.34215878383636 0 0 0
1199 120 9 -0.358962 -1.5294727949121885 28.83423301373529 17.631277803013536 1 0 0
1443 145 7 -0.358962 1.784090469988532 22.194917630373883 21.424874876994533 0 0 0
1048 105 6 0.404798 2.7187260577651076 22.68779676915092 17.538356140806407 0 0 0
715 72 8 -0.358962 -0.7522498181469497 21.770014406812376 14.562865429182139 1 0 0
1115 112 8 -0.358962 -1.9561875279892982 21.606213535141904 21.753137880927444 1 0 0
1516 152 2 -0.091672 -4.14024757719943 23.823297823100912 26.205349279977245 1 0 0
1111 112 1 -0.091672 -3.1541623299410038 23.691627727287184 20.83008310199241 1 0 0
714 72 4 0.404798 -1.2785519688957543 22.78919961589299 14.40076227013221 1 0 0
1530 153 10 -0.358962 1.271842432802286 29.47412586017517 25.046839955074486 0 0 0
1517 152 5 0.404798 -3.2217003958373467 23.271081054222176 25.258880216208862 1 0 0
1053 106 7 -0.358962 3.482039842332212 24.656435480404166 22.101647595313356 0 0 0
1042 105 3 0.404798 3.1541692087495528 21.221374964790247 15.095024919260242 0 0 0
1442 145 3 0.404798 1.3064004347570002 21.521716247280615 22.285752761867116 0 0 0
1114 112 4 0.404798 -2.5310398939879963 22.520734669714034 21.35835779650552 1 0 0
1046 105 2 -0.091672 2.068867440430291 21.40678297324934 17.24628530176955 0 0 0
1043 105 7 -0.358962 3.848580031694172 21.61884589158979 14.21702799976312 0 0 0
1446 145 2 -0.091672 0.21233248614728062 21.278335690505415 24.45345635085872 0 0 0
1519 152 9 -0.358962 -2.408854775470808 22.964259921418805 24.446896134146485 1 0 0
1448 145 6 0.404798 0.4734842729146447 22.61845077619742 24.880678344669384 0 0 0
1119 112 9 -0.358962 -1.0661526251977445 23.015476110583165 18.240123359369537 1 0 0
1599 160 9 -0.358962 -2.3037578265352545 29.118464844822736 24.543414578018645 1 0 0
1380 138 10 -0.358962 3.6007237890959765 20.720654491128304 25.27560688381584 0 0 0
1460 146 10 -0.358962 3.5923155418170447 26.708927064122506 25.220438496973152 0 0 0
1130 113 10 -0.358962 2.829597041925123 29.49545196419342 18.031511081119362 0 0 0
1458 146 6 0.404798 4.0432355361062635 25.66483305214406 25.502293017979813 0 0 0
794 80 4 0.404798 -1.704097367437873 28.48532280694294 14.602084453519538 1 0 0
653 66 7 -0.358962 4.5094298931951435 25.002338118951553 14.870853693747009 0 0 0
980 98 10 -0.358962 4.9239666881400534 20.474108227442187 18.853018492312117 0 0 0
652 66 3 0.404798 5.510373559786428 24.57654532327039 14.42921113796924 0 0 0