LAMMPS data file via write_data, version 29 Sep 2021, timestep = 5000000

1620 atoms
10 atom types
1458 bonds
9 bond types
1620 angles
10 angle types
1944 dihedrals
12 dihedral types

0 31.303 xlo xhi
0 31.303 ylo yhi
0 31.303 zlo zhi

Masses

1 12.01
2 12.01
3 12.01
4 12.01
5 12.01
6 12.01
7 14.01
8 14.01
9 14.01
10 14.01

Bond Coeffs # harmonic

1 400 1.426
2 400 1.426
3 400 1.426
4 400 1.426
5 549 1.34
6 650 1.16
7 650 1.16
8 650 1.16
9 650 1.16

Angle Coeffs # harmonic

1 70 116.8
2 70 116.8
3 70 121.6
4 70 121.6
5 70 121.6
6 70 121.6
7 70 178.9
8 70 178.9
9 70 178.9
10 70 178.9

Dihedral Coeffs # opls

1 0 0 0 0
2 0 0 0 0
3 0 0 0 0
4 0 0 0 0
5 0 0 0 0
6 0 0 0 0
7 0 0 0 0
8 0 0 0 0
9 0 14 0 0
10 0 14 0 0
11 0 14 0 0
12 0 14 0 0

Atoms # full

8 1 6 0.404798 4.015898831299289 5.677204677188921 5.686259035120814 1 1 0
6 1 2 -0.091672 5.0235036274673766 6.608300130949773 5.23999812716994 1 1 0
1 1 1 -0.091672 5.139410082602596 7.013149485863438 3.9678885817936953 1 1 0
7 1 5 0.404798 5.901344635093305 7.022331580328497 6.251825681798599 1 1 0
2 1 3 0.404798 4.2301662487466345 6.432626598486217 3.056983752073379 1 1 0
4 1 4 0.404798 6.093222059209262 7.931680100009681 3.47205178529058 1 1 0
10 1 10 -0.358962 3.151924860248312 5.043580614011531 6.130859445944832 1 1 0
3 1 7 -0.358962 3.4259283213117446 5.909810988017293 2.4047068214586482 1 1 0
879 88 9 -0.358962 9.087016825160308 9.752218640791543 7.616074644205762 1 0 0
864 87 4 0.404798 0.8585041694009684 3.257456783214907 0.5969178218875516 1 0 1
800 80 10 -0.358962 8.414154502285806 1.035613988696021 2.6273754768553066 0 1 1
1515 152 8 -0.358962 1.9571912719193265 8.900423728874554 2.8283241614643657 0 0 1
1514 152 4 0.404798 1.2042471911997685 8.099022050566347 3.1976892408948863 0 0 1
1292 130 3 0.404798 5.325323817169488 2.75409768252894 2.5239045226084995 1 0 1
1293 130 7 -0.358962 5.112580188121609 3.1549501710413073 3.59145192715609 1 0 1
1431 144 1 -0.091672 3.470606337055584 1.2090925942902335 5.628464188327455 0 0 0
1432 144 3 0.404798 3.9656538942230313 1.6469510211672118 6.907336193391707 0 0 0
1434 144 4 0.404798 2.7751504940659317 2.159367294918115 4.804731372300993 0 0 0
1435 144 8 -0.358962 2.1834333285264775 2.895758008681948 4.131530426324908 0 0 0
1513 152 7 -0.358962 0.5165291283024052 6.754381410240113 6.237736323500947 0 0 1
865 87 8 -0.358962 1.229098693846679 4.348836402946847 0.4659589511282841 1 0 1
9 1 9 -0.358962 6.507225689575179 7.4036326442857 7.164578471321525 1 1 0
1511 152 1 -0.091672 0.2666710770347451 7.156870890032749 3.6754805737464054 0 0 1
1296 130 2 -0.091672 6.597148055454234 2.5769100419794735 0.43177876732730314 1 0 1
1291 130 1 -0.091672 5.608023696095095 2.1739965460990205 1.2410338157021277 1 0 1
1512 152 3 0.404798 0.35802591741979894 6.985818487599967 5.112163749880778 0 0 1
5 1 8 -0.358962 6.79461163948421 8.76096430587959 3.064694001125804 1 1 0
1155 116 8 -0.358962 1.6720540117679674 9.35370721895618 6.418410101446379 1 0 0
1580 158 10 -0.358962 14.505744115791334 7.540328430260154 4.775394107483664 0 0 -1
649 65 9 -0.358962 9.5382078882325 7.248342251182119 3.4759176177737463 -1 0 0
448 45 6 0.404798 14.768504178972162 0.17312426131130962 6.677929515207312 0 0 1
923 93 7 -0.358962 11.736831892164414 8.717756510725042 1.384519319173446 0 1 1
1577 158 5 0.404798 15.099682942818253 4.832618656592258 7.018326376410869 0 0 -1
795 80 8 -0.358962 12.083654733251924 5.2049989037139035 4.821627884023888 0 1 1
1549 155 9 -0.358962 4.796122858456793 8.128553551006688 0.14504041673275 0 0 0
1300 130 10 -0.358962 7.77790173241826 4.724797241376495 1.2338816740339575 1 0 1
1298 130 6 0.404798 7.373899076679879 3.712357687285031 0.8372105138068017 1 0 1
648 65 6 0.404798 11.385015744592536 8.987221667828377 5.743773554840324 -1 0 0
647 65 5 0.404798 9.967761650822728 8.205065140564583 3.9716644188450334 -1 0 0
1295 130 8 -0.358962 4.173914794866722 0.13508611233850779 0.47745733384538486 1 0 1
794 80 4 0.404798 11.473150148869182 4.333766994463835 4.35920045735654 0 1 1
799 80 9 -0.358962 8.070804319591197 4.614033802190751 5.230065177670919 0 1 1
796 80 2 -0.091672 9.543763991205612 2.8843957901006014 4.055546125472433 0 1 1
650 65 10 -0.358962 12.068171089130797 8.745942728528656 6.649689251251569 -1 0 0
798 80 6 0.404798 8.946664036955369 1.795614888460843 3.323387135844881 0 1 1
792 80 3 0.404798 11.788569878834847 2.305815154326274 3.37001182602178 0 1 1
791 80 1 -0.091672 10.85158836053666 3.17342986142751 4.014867469333958 0 1 1
646 65 2 -0.091672 10.48693919845868 9.319967852774468 4.690837262217977 -1 0 0
922 93 3 0.404798 12.841911471262085 8.36736859411306 1.4248607814319372 0 1 1
928 93 6 0.404798 13.459358997675768 5.57417181393159 1.4287372577618316 0 1 1
1576 158 2 -0.091672 14.990491028924827 6.264797894362389 7.013681728587607 0 0 -1
926 93 2 -0.091672 14.490896954924636 6.573861892449135 1.4155793493984872 0 1 1
1578 158 6 0.404798 14.750960142465068 6.909672026033767 5.717594510920426 0 0 -1
921 93 1 -0.091672 14.187727037966326 7.877340235563514 1.4836398251316116 0 1 1
797 80 5 0.404798 8.682992542131473 3.7720056020297346 4.718387441838603 0 1 1
930 93 10 -0.358962 12.623972929835286 4.770089637653406 1.3943574044565643 0 1 1
793 80 7 -0.358962 12.509934508361765 1.6186725424432247 2.775816479700659 0 1 1
1579 158 9 -0.358962 15.393909189585235 3.711881249638244 6.96374997208019 0 0 -1
305 31 8 -0.358962 6.877267212118094 1.472768632857212 5.9952631488117945 0 1 0
304 31 4 0.404798 7.442707835563856 1.102090398862724 6.937852432948587 0 1 0
861 87 1 -0.091672 0.25027593477121496 1.9079628363431225 0.6843410177064736 1 0 1
307 31 5 0.404798 10.321884252844825 0.6962180822822925 6.979393807151555 0 1 0
447 45 5 0.404798 15.332755162820643 0.859974239736532 4.383452146793885 0 0 1
1154 116 4 0.404798 1.5287732186000047 9.251862762104212 7.565013054025303 1 0 0
1294 130 4 0.404798 4.776103391271399 1.0551749054915818 0.8467885027057493 1 0 1
924 93 4 0.404798 15.143448359607437 8.913853480622603 1.6483170695473972 0 1 1
309 31 9 -0.358962 10.999764268601155 0.8603916732122832 6.052503459280349 0 1 0
1573 158 7 -0.358962 15.285904192428786 9.561799647560049 7.7323319547558995 0 0 -1
276 28 2 -0.091672 5.777929458853805 8.593109827295837 14.538446802444938 1 1 0
271 28 1 -0.091672 5.776981204646321 7.49542816868153 13.769880540211032 1 1 0
1491 150 1 -0.091672 3.0791601714249235 3.9932952016926464 10.22533435901124 1 0 0
1494 150 4 0.404798 3.5003221150931276 5.164815658994374 9.60092254579059 1 0 0
272 28 3 0.404798 4.531347322211882 7.237470593180103 13.147894264561126 1 1 0
273 28 7 -0.358962 3.6048654503453403 6.869390667470849 12.554810350719652 1 1 0
1492 150 3 0.404798 1.8351651714530426 3.56137774886572 9.650942627567444 1 0 0
1496 150 2 -0.091672 3.744096041020179 3.2975071243095497 11.157718005251569 1 0 0
1498 150 6 0.404798 3.356278021915333 2.084910158928375 11.77666935081707 1 0 0
278 28 6 0.404798 4.613269068198068 9.445667605793581 14.632016919833552 1 1 0
1497 150 5 0.404798 5.072681632608665 3.8175682778953717 11.565117778985732 1 0 0
880 88 10 -0.358962 4.844885732128088 9.954096345687237 8.21993739865415 1 0 0
1153 116 7 -0.358962 0.6560243267530076 6.879358754771738 10.018330223565645 1 0 0
1493 150 7 -0.358962 0.9245999671416341 3.1954866435020604 9.032400220961936 1 0 0
1152 116 3 0.404798 1.0079640494984612 7.876991215842708 9.542443782586036 1 0 0
1151 116 1 -0.091672 1.4988442792193322 9.13075062638861 8.985691129906579 1 0 0
1499 150 9 -0.358962 6.037001012431249 4.234326136604474 12.057053781473835 1 0 0
1500 150 10 -0.358962 2.937236662168684 1.0985334476841944 12.220589768078295 1 0 0
274 28 4 0.404798 6.921804242287633 6.613938378244604 13.555638321129752 1 1 0
1572 158 3 0.404798 15.249254533997247 8.428837112541714 7.978609714602203 0 0 -1
1156 116 2 -0.091672 1.6896750637715203 10.144290367969809 9.841214841293654 1 0 0
185 19 8 -0.358962 1.2208858588122204 5.374324535504869 13.19318258230472 1 0 -1
1122 113 3 0.404798 15.574383878249689 9.31902030533947 11.990658048468772 1 0 1
1495 150 8 -0.358962 3.929246640450827 6.1140302485279046 9.09041748642175 1 0 0
400 40 10 -0.358962 6.920949919091609 4.2842917467975985 8.827923279911584 1 -1 0
302 31 3 0.404798 7.276228346072896 0.22128099048969121 9.190122643850861 0 1 0
184 19 4 0.404798 0.7918699164305083 6.356508766742949 13.63687107304145 1 0 -1
1574 158 4 0.404798 15.575328490016448 6.462922822659881 9.335952087974837 0 0 -1
181 19 1 -0.091672 0.3627680116339821 7.470623431101918 14.394977999672752 1 0 -1
275 28 8 -0.358962 7.92956994462019 6.048457036348882 13.454449679077342 1 1 0
436 44 2 -0.091672 0.7567085155181196 1.0888226962041778 15.12844630544628 0 0 0
1593 160 7 -0.358962 15.221593694717289 0.7732976644501853 11.044089480973344 0 1 0
398 40 6 0.404798 7.589951072449544 5.117941278992514 9.278551644711088 1 -1 0
696 70 2 -0.091672 9.185283602459448 1.9923153137527103 14.819566723477358 1 0 1
399 40 9 -0.358962 7.3423652615404915 8.331536621384203 10.775124689051108 1 -1 0
694 70 4 0.404798 8.065149151478549 0.4157235676057584 13.37934826381052 1 0 1
1571 158 1 -0.091672 15.220995916598087 7.026437068294888 8.091815895909027 0 0 -1
306 31 2 -0.091672 9.48332373025604 0.3769664740994731 8.093045223550876 0 1 0
393 40 7 -0.358962 10.865161330432764 3.8883884668242583 8.727795310632784 1 -1 0
691 70 1 -0.091672 8.935477367231043 1.5367463569735729 13.58439313955938 1 0 1
395 40 8 -0.358962 11.613086774694219 7.80257110969953 10.220211144034465 1 -1 0
301 31 1 -0.091672 8.160930214108296 0.592319260282489 8.07071656715618 0 1 0
391 40 1 -0.091672 9.794752888766373 6.078627845121882 9.573283797361153 1 -1 0
1433 144 7 -0.358962 4.302411113174836 2.069599793649495 7.933768165845335 0 0 0
698 70 6 0.404798 10.03900710718615 3.1480738657711713 14.984908143237444 1 0 1
700 70 10 -0.358962 10.80111232589155 4.011134266022384 15.126054808889966 1 0 1
280 28 10 -0.358962 3.7074082155898243 10.16655714428702 14.558979800463854 1 1 0
397 40 5 0.404798 7.817654643493837 7.365099676456052 10.344195859521394 1 -1 0
440 44 10 -0.358962 3.2127739752128397 1.989777093449117 15.472859215924048 0 0 0
1508 151 6 0.404798 13.475387431814049 1.7797905604372573 13.75157114319681 0 -1 0
1158 116 6 0.404798 1.2039917593569782 10.070329848577918 11.206710542676218 1 0 0
1504 151 4 0.404798 15.59191873425007 4.836171327614965 13.643319783562314 0 -1 0
1121 113 1 -0.091672 14.1295146345801 9.469787878476932 11.783551507166509 1 0 1
1233 124 7 -0.358962 9.525553640018524 8.829787006593843 13.17196273729184 0 0 0
182 19 3 0.404798 1.1972546963745039 7.925700567301874 15.415815289722312 1 0 -1
1507 151 5 0.404798 15.560831862932764 2.4090023320888236 15.047793142807976 0 -1 0
1503 151 7 -0.358962 12.737338426090577 4.7783446875651165 11.808657471973348 0 -1 0
277 28 5 0.404798 6.923094049965095 8.91548121878199 15.380130617871638 1 1 0
1506 151 2 -0.091672 14.518474499292237 2.726116445568779 14.100747869493533 0 -1 0
1124 113 4 0.404798 13.36672741116753 8.648330407992528 12.587070635586949 1 0 1
438 44 6 0.404798 2.11958620886413 1.637647312567258 15.309932460425024 0 0 0
1125 113 8 -0.358962 12.589768114831976 8.116894400029302 13.264942323825082 1 0 1
392 40 3 0.404798 10.425160263073046 4.913934816847726 9.04442403869482 1 -1 0
692 70 3 0.404798 9.284953220715542 2.2745974995708704 12.42499416951516 1 0 1
693 70 7 -0.358962 9.600731900117799 2.7403966323062523 11.410639691924205 1 0 1
1510 151 10 -0.358962 12.524783636828454 1.145721044909784 13.55180058532073 0 -1 0
1502 151 3 0.404798 13.485469687879522 4.41350271108027 12.616611649836582 0 -1 0
1501 151 1 -0.091672 14.492360105677779 3.9188412551463325 13.490562999989121 0 -1 0
1232 124 3 0.404798 10.000838909711923 9.782594330943155 13.632247563783944 0 0 0
394 40 4 0.404798 10.759774916970654 7.060492120270398 9.9617974233034 1 -1 0
396 40 2 -0.091672 8.466097588347104 6.220131931242007 9.67453455221298 1 -1 0
1160 116 10 -0.358962 0.7172287962737337 10.18694802994625 12.253162659239086 1 0 0
450 45 10 -0.358962 14.851897806898533 0.23652141365829563 7.833189791175669 0 0 1
892 90 3 0.404798 5.505883648150173 3.0362236634456288 17.612231415403727 -1 1 -1
891 90 1 -0.091672 4.451536381936233 3.2620661949036274 18.60106874492756 -1 1 -1
894 90 4 0.404798 4.574456209589752 2.4900497581810077 19.770707957642372 -1 1 -1
896 90 2 -0.091672 3.482165782709286 4.171435872458698 18.43087050334737 -1 1 -1
898 90 6 0.404798 3.501851120806422 4.912751426043119 17.203768598758945 -1 1 -1
895 90 8 -0.358962 4.682781230847401 1.9065467045643114 20.767397418470487 -1 1 -1
897 90 5 0.404798 2.487731812178846 4.429661466597605 19.427169945787693 -1 1 -1
802 81 3 0.404798 12.572940467756403 9.942186117135842 23.129188714458348 0 0 0
899 90 9 -0.358962 1.7244159625918851 4.780239395862185 20.22719747615896 -1 1 -1
1382 139 3 0.404798 6.036204328085735 8.019329873605496 20.403734257853525 0 0 1
893 90 7 -0.358962 6.2380267739322734 3.0306651520586927 16.712489477268132 -1 1 -1
340 34 10 -0.358962 0.2830008126375155 9.7134012506876 20.137304381846686 0 0 0
183 19 7 -0.358962 1.9131013078139416 8.10299231202246 16.311209765096535 1 0 -1
1413 142 7 -0.358962 12.94756142948273 6.081754033363075 23.43600690413916 0 1 1
1383 139 7 -0.358962 5.700792883050327 6.9119770089456685 20.32085603296873 0 0 1
725 73 8 -0.358962 6.903671033122939 6.228712704352213 16.973399526470804 1 0 1
605 61 8 -0.358962 1.2072896801466986 1.931399836860739 18.573490404434466 1 0 0
803 81 7 -0.358962 13.48990261666154 10.256155103292844 22.491847440483067 0 0 0
1381 139 1 -0.091672 6.510036455560738 9.356005213939365 20.6143860303827 0 0 1
488 49 6 0.404798 13.770456884606563 6.22406029579885 17.332088404034764 -1 -1 0
457 46 5 0.404798 1.2569096124797063 2.715075679665549 22.651823842185646 2 0 -1
338 34 6 0.404798 0.9476655915741022 10.218688406443947 19.332005904218647 0 0 0
459 46 9 -0.358962 1.1901269733714062 1.6591202379682088 22.176326006724455 2 0 -1
279 28 9 -0.358962 7.746301396444364 9.312752545661688 16.094347087869597 1 1 0
590 59 10 -0.358962 12.151023585426277 1.6277517850953762 16.812522366405005 0 1 0
588 59 6 0.404798 12.864419103855607 1.1109442445283555 17.56722549613664 0 1 0
82 9 3 0.404798 7.772699490704298 6.20795158103071 22.888749313895502 0 -1 -1
93 10 7 -0.358962 4.113855010950831 8.45527482488833 22.93587978932452 0 -1 0
1386 139 2 -0.091672 7.696237509037409 9.898168231954498 20.306837131016003 0 0 1
1418 142 6 0.404798 11.162504363746445 3.3357866390896183 22.228422481027074 0 1 1
490 49 10 -0.358962 13.738732110294825 5.160527234046653 16.87003757249812 -1 -1 0
487 49 5 0.404798 14.689293632836034 8.337279079918344 16.838290335915108 -1 -1 0
486 49 2 -0.091672 13.847934351047762 7.568485010702741 17.712387252606344 -1 -1 0
483 49 7 -0.358962 11.987180526848176 6.801370694332276 20.621049348969454 -1 -1 0
484 49 4 0.404798 13.823969899755275 9.360815614613982 19.200660502157678 -1 -1 0
1028 103 6 0.404798 9.35360033671484 0.10849136457100479 20.58742479169025 0 1 0
1419 142 9 -0.358962 12.830601621449471 0.36920787430401053 22.02064279478159 0 1 1
481 49 1 -0.091672 13.435868525712023 8.04830710549248 18.893730776237085 -1 -1 0
805 81 8 -0.358962 9.130546612876467 9.951749588398174 22.999618397951934 0 0 0
1384 139 4 0.404798 5.553289888980595 10.315497133840124 21.057217475339638 0 0 1
855 86 8 -0.358962 15.398826843891229 5.232607240421801 20.846412091054663 0 0 0
586 59 2 -0.091672 13.669010798820832 0.5698768136757111 18.573213668012155 0 1 0
728 73 6 0.404798 10.848687460399741 4.255005798663152 18.897816084537798 1 0 1
724 73 4 0.404798 7.93408788080682 5.888950838754003 17.38376887180564 1 0 1
729 73 9 -0.358962 7.590706843120908 3.3481422488803867 19.638594547211433 1 0 1
83 9 7 -0.358962 8.4717152457205 6.786089377722511 22.16574608922486 0 -1 -1
726 73 2 -0.091672 9.545668534735277 4.70073010364341 18.58996962151158 1 0 1
723 73 7 -0.358962 10.986360254543836 7.272902713990887 16.568854293020248 1 0 1
697 70 5 0.404798 8.769474685208483 1.3222214597917659 16.015181556172806 1 0 1
587 59 5 0.404798 14.084777081553689 1.5520883545601467 19.53632659876887 0 1 0
482 49 3 0.404798 12.738317030487627 7.324750380183616 19.90868170321816 -1 -1 0
1030 103 10 -0.358962 10.165468854865527 0.6916762977131812 19.998897099489042 0 1 0
1390 139 10 -0.358962 9.642068514200691 8.56547535741965 19.326814739591295 0 0 1
730 73 10 -0.358962 11.904088581571015 3.8173319379079667 19.09824082866458 1 0 1
1388 139 6 0.404798 8.714304996634722 9.079255738703003 19.796798347319815 0 0 1
699 70 9 -0.358962 8.614108855003627 0.79082455266918 17.03453369902333 1 0 1
722 73 3 0.404798 10.209350313629551 6.555848109672494 17.046021205168845 1 0 1
727 73 5 0.404798 8.495302878834615 3.901669186272904 19.168579714759392 1 0 1
721 73 1 -0.091672 9.276315375507403 5.714809600039319 17.75648797512641 1 0 1
589 59 9 -0.358962 14.50590726593091 2.2743728048720553 20.3404127524399 0 1 0
489 49 9 -0.358962 15.486248008372486 8.888309726471388 16.200458889977444 -1 -1 0
1420 142 10 -0.358962 10.146560517087208 3.7353227183757545 21.83621203540156 0 1 1
458 46 6 0.404798 2.34726806533895 4.794667495077724 23.326147777352883 2 0 -1
1417 142 5 0.404798 12.576477527224492 1.4366492854292043 22.396926983194987 0 1 1
1416 142 2 -0.091672 12.340915841651299 2.78813599098411 22.71948463325074 0 1 1
900 90 10 -0.358962 3.6244835839341487 5.615484608949708 16.28904057591929 -1 1 -1
1022 103 3 0.404798 9.016481000381395 0.5763916682315092 23.468752908859027 0 1 0
456 46 2 -0.091672 1.2125955177506618 4.031564865775055 23.275941564761162 2 0 -1
1412 142 3 0.404798 13.066217310559487 4.945022163654212 23.237609723514755 0 1 1
604 61 4 0.404798 0.14304279009815132 2.206767343209874 18.94382983843244 1 0 0
339 34 9 -0.358962 4.187673608748418 10.118495941789089 17.96401698877585 0 0 0
1411 142 1 -0.091672 13.339465492548314 3.5961023644449006 23.101176846315127 0 1 1
92 10 3 0.404798 3.348274183698153 9.174884416802195 23.42745687920283 0 -1 0
85 9 8 -0.358962 6.444992385766702 3.051876076507531 23.45734433832871 0 -1 -1
1541 155 1 -0.091672 2.7888491914402116 6.08590339306875 29.506857096242175 0 0 -1
1542 155 3 0.404798 1.7627514338184154 5.6485397254351195 28.627863575852842 0 0 -1
1547 155 5 0.404798 3.9290854624130462 7.8223596770956 30.74086896146925 0 0 -1
1544 155 4 0.404798 3.811540350832579 5.101309727515957 29.773371362209332 0 0 -1
89 9 9 -0.358962 4.571220988955867 5.43081946121514 26.453128106821097 0 -1 -1
87 9 5 0.404798 5.397415379769143 5.819102451054086 25.73741925743232 0 -1 -1
1545 155 8 -0.358962 4.700503470705552 4.384784704832687 29.9781553501987 0 0 -1
869 87 9 -0.358962 0.9616476122730527 1.8644205873362267 28.547193202157526 1 0 0
86 9 2 -0.091672 6.390147654977952 6.32438259055777 24.81864364970374 0 -1 -1
88 9 6 0.404798 6.773407534635968 7.658025960992337 24.981227919023933 0 -1 -1
745 75 8 -0.358962 3.515557636277725 2.040414616039668 25.12057893319616 1 1 0
90 9 10 -0.358962 7.135260948853042 8.75949994785622 25.018873183795815 0 -1 -1
100 10 10 -0.358962 3.613771886706337 8.4250966003533 26.854505196275902 0 -1 0
98 10 6 0.404798 3.0209666042553973 9.174062768894945 26.196301901466242 0 -1 0
81 9 1 -0.091672 6.94715320668514 5.575654840256237 23.857003589295253 0 -1 -1
91 10 1 -0.091672 2.370972548422876 9.975258115390728 24.067927336239883 0 -1 0
1217 122 5 0.404798 10.189099001453856 10.015811152453288 29.877286581807066 1 0 0
1215 122 8 -0.358962 7.079279089238045 8.368361132016018 29.404807058526835 1 0 0
744 75 4 0.404798 3.736363374113854 1.1763546043405746 25.862364031357775 1 1 0
1214 122 4 0.404798 7.406084934768661 9.355926055876944 29.918142687032258 1 0 0
1550 155 10 -0.358962 1.2348558087922454 9.232570105540736 29.230240207700607 0 0 -1
96 10 2 -0.091672 2.3571844965965103 10.13626500096623 25.39814787644496 0 -1 0
1546 155 2 -0.091672 2.882620404299125 7.356802367046795 29.92113088678611 0 0 -1
1548 155 6 0.404798 1.956147435583547 8.3791378101954 29.54167512684233 0 0 -1
749 75 9 -0.358962 7.34096892096979 1.2228565228451673 25.98982543817058 1 1 0
1543 155 7 -0.358962 0.9366719968653336 5.243518226568413 27.921357832547752 0 0 -1
1471 148 1 -0.091672 12.418464337065622 0.11585235246009216 26.532542010813618 1 0 -1
1476 148 2 -0.091672 11.177397865694921 0.3307174914116247 26.989911652332385 1 0 -1
84 9 4 0.404798 6.607621520131359 4.174835476356042 23.698412740864235 0 -1 -1
1172 118 3 0.404798 14.012126733682583 0.3967884528771203 31.0487175097512 -1 0 0
741 75 1 -0.091672 4.091144518529734 0.18328317260245222 26.804341710935212 1 1 0
747 75 5 0.404798 6.490865058124556 0.6501793028636521 26.532931538914532 1 1 0
866 87 2 -0.091672 0.2469581999362785 1.1053567990207078 30.914302072205643 1 0 0
801 81 1 -0.091672 11.445474101415261 9.542352751587133 23.957316417824458 0 0 0
867 87 5 0.404798 0.6208871919918052 1.4802765221475498 29.587344964522337 1 0 0
451 46 1 -0.091672 0.14802911534355692 4.394370784544664 24.004412739906503 2 0 -1
1445 145 8 -0.358962 13.269652997058147 6.446947701476045 29.39738010122481 1 1 0
1443 145 7 -0.358962 9.250187105315085 6.8620111315536585 31.16379125377038 1 1 0
1171 118 1 -0.091672 15.361569619527558 0.7163269561731689 31.236749883141687 -1 0 0
1173 118 7 -0.358962 12.915137151051608 0.047853829213669666 30.90568435235729 -1 0 0
1297 130 5 0.404798 6.766976866037542 2.002201655977332 30.38897202216343 1 0 0
1441 145 1 -0.091672 10.689313762872514 5.977435945968185 29.21705468685742 1 1 0
1447 145 5 0.404798 10.90982724804067 4.762469092225436 27.182062582446623 1 1 0
504 51 4 0.404798 14.097336402169793 10.22947343547912 29.88756977070106 0 0 0
505 51 8 -0.358962 14.525389295537012 9.164537038607882 30.055739907333162 0 0 0
1449 145 9 -0.358962 11.5983515516068 4.440334310263972 26.30584144641761 1 1 0
1023 103 7 -0.358962 9.717994613649036 1.2435438749963423 24.10780422556569 0 1 0
1178 118 6 0.404798 14.959415305518215 3.0425889445365812 30.595897737681966 -1 0 0
453 46 7 -0.358962 0.40999255301368787 6.6370343384620885 25.214242061854375 2 0 -1
1472 148 3 0.404798 13.476789155093911 1.0060643327278116 26.832376726522057 1 0 -1
1450 145 10 -0.358962 7.63881200243517 4.66547669396297 28.136127400399637 1 1 0
1442 145 3 0.404798 9.883076130805915 6.468096987758797 30.275037556546152 1 1 0
460 46 10 -0.358962 3.2862222445953817 5.452702084354919 23.502089649995447 2 0 -1
1473 148 7 -0.358962 14.270955529529383 1.8322805075243005 27.0120058503333 1 0 -1
1480 148 10 -0.358962 10.956498592985373 2.106277152827861 28.91432433234507 1 0 -1
1180 118 10 -0.358962 14.188204031763162 3.7875602407641473 30.15334724122829 -1 0 0
1478 148 6 0.404798 11.041797165633437 1.2627614641452274 28.122613877178868 1 0 -1
806 81 2 -0.091672 11.651819916880864 8.910056264228933 25.120597363035774 0 0 0
809 81 9 -0.358962 9.756238972196643 7.848913144470359 26.491154169328418 0 0 0
1299 130 9 -0.358962 6.922086758448582 1.42033973259116 29.397519742201396 1 0 0
1444 145 4 0.404798 12.135192220803434 6.253841017935468 29.251405589507726 1 1 0
807 81 5 0.404798 10.541183980430505 8.386691718456406 25.82763659781084 0 0 0
1448 145 6 0.404798 8.778827961569515 4.856486009488963 28.233487896165453 1 1 0
1219 122 9 -0.358962 11.01288313065398 9.348470318282422 29.406504337525202 1 0 0
765 77 8 -0.358962 14.835856836343067 5.192823987299307 26.938528274639875 -1 0 0
1446 145 2 -0.091672 10.117135261467688 5.205855948030891 28.282776315249194 1 1 0
810 81 10 -0.358962 14.057730898031554 8.478487117461121 26.075239154936362 0 0 0
808 81 6 0.404798 13.002654726626536 8.67699115285152 25.63590964042501 0 0 0
452 46 3 0.404798 0.18016516219314668 5.628063024966992 24.690070085267937 2 0 -1
989 99 9 -0.358962 9.516272784465242 0.5514919486642456 31.14988296710324 0 1 -1
804 81 4 0.404798 10.162395990401123 9.860143961245798 23.521629203210317 0 0 0
1414 142 4 0.404798 14.64775400759536 3.2253158143292238 23.522848837306405 0 1 1
404 41 4 0.404798 3.664178813201727 14.503318170128386 5.862761519616464 0 0 0
401 41 1 -0.091672 2.438579167264807 14.079928276256057 5.263965194119813 0 0 0
405 41 8 -0.358962 4.734710967810962 14.71398340906307 6.256691801633787 0 0 0
406 41 2 -0.091672 2.3512225329761582 12.78342981555324 4.93676409001343 0 0 0
1290 129 10 -0.358962 4.46070597910955 14.865871911745637 3.03740330362958 1 0 0
1349 135 9 -0.358962 13.848404202989649 11.169343924585748 5.113803327186041 0 0 0
1288 129 6 0.404798 5.586729203800454 14.827811363562963 3.3134886149453826 1 0 0
403 41 7 -0.358962 0.6840236800006761 15.897923060431015 4.877196807790904 0 0 0
1000 100 10 -0.358962 14.686966619254298 19.799034705250524 1.928141468982573 -1 0 -1
1425 143 8 -0.358962 3.8643826739274427 18.80485679550442 5.3509810457432865 -1 -1 1
1424 143 4 0.404798 3.9847012425249386 18.906308459432843 6.500255167756909 -1 -1 1
409 41 9 -0.358962 4.206892659404594 11.032265758287043 5.171601991796759 0 0 0
410 41 10 -0.358962 0.1698979689755904 11.910092919578549 3.842795457794181 0 0 0
1267 127 5 0.404798 2.7329557827791935 19.607852160499903 1.8413014572711195 0 0 -1
998 100 6 0.404798 14.318409163830038 19.94707292692402 3.018026826113061 -1 0 -1
229 23 9 -0.358962 2.3567514303161663 10.681065762265415 0.6230960838483653 1 1 1
402 41 3 0.404798 1.4679913678534997 15.054782386360602 5.019001141094218 0 0 0
407 41 5 0.404798 3.4174490710776078 11.86783869423237 5.016049138747899 0 0 0
1009 101 9 -0.358962 6.496659302528594 20.56833185314966 4.79133835650549 1 0 0
1007 101 5 0.404798 7.557737016968793 20.586308823322923 4.322946491253961 1 0 0
641 65 1 -0.091672 10.24050643411718 10.594388387469634 4.358086311965245 -1 0 0
996 100 2 -0.091672 13.80163136419439 20.237984836193334 4.261097706446912 -1 0 -1
645 65 8 -0.358962 8.454168412977044 11.242981016785464 2.5910594434282914 -1 0 0
408 41 6 0.404798 1.1566598487616653 12.344148279169676 4.2711608862227495 0 0 0
1269 127 9 -0.358962 2.196804199099264 18.620136776450146 1.5539692460838845 0 0 -1
1005 101 8 -0.358962 7.324237924693724 18.138897657944785 1.751906353703192 1 0 0
1004 101 4 0.404798 8.162773524102628 18.860166440753858 2.1015195566633245 1 0 0
227 23 5 0.404798 1.929560072459543 11.627661954187218 0.10631449491423993 1 1 1
1346 135 2 -0.091672 14.732454289323671 13.589680693448221 5.361766718320751 0 0 0
643 65 7 -0.358962 11.198597046926116 12.607298282783802 5.617052810610569 -1 0 0
1001 101 1 -0.091672 9.085664933893497 19.839318793007585 2.5754310990128113 1 0 0
1330 133 10 -0.358962 3.9800037540992412 16.051761884113542 0.09260935959624939 1 0 0
509 51 9 -0.358962 13.817962794500106 12.086206385731 1.5253743717503927 0 0 1
1347 135 5 0.404798 14.269487903737925 12.244630394432697 5.223564559168886 0 0 0
1286 129 2 -0.091672 7.011800293677446 14.673652461181339 3.492328654394843 1 0 0
513 52 7 -0.358962 12.446095660149371 16.195346207731582 7.764627534402692 0 0 1
119 12 9 -0.358962 0.3685086508501187 18.906894127397113 7.103402016440788 0 0 0
1287 129 5 0.404798 7.4885449576464085 14.297175788881125 4.772624048350976 1 0 0
1282 129 3 0.404798 7.550257195429476 14.95665481165425 1.1628382074965162 1 0 0
1289 129 9 -0.358962 7.8600420378252105 13.920394413345957 5.804915537768506 1 0 0
1284 129 4 0.404798 9.302781220882155 14.528535959814908 2.639084127759129 1 0 0
1229 123 9 -0.358962 9.067282992402255 19.981507940528353 7.324309518408646 0 0 1
1281 129 1 -0.091672 7.936377530819824 14.772097680702059 2.5274113129955715 1 0 0
511 52 1 -0.091672 9.98090175184254 16.90235695833876 7.62819274706061 0 0 1
1348 135 6 0.404798 13.842061723280159 14.691975848382416 4.967343442149897 0 0 0
1033 104 7 -0.358962 14.94406498389219 18.915928214858717 6.902578343377817 0 0 0
997 100 5 0.404798 12.821215233931058 19.279887068580972 4.725563365728709 -1 0 -1
1003 101 7 -0.358962 11.290997944924909 20.14941016169878 1.1329455442794514 1 0 0
1285 129 8 -0.358962 10.376412866001004 14.130609689640407 2.825013648843349 1 0 0
514 52 4 0.404798 9.453416257508364 17.05878610097646 6.278768340716132 0 0 1
1078 108 6 0.404798 14.011748904829021 17.2063656716423 0.4577377577344238 0 0 1
1350 135 10 -0.358962 13.085884452373362 15.537242283193473 4.723785239564757 0 0 0
642 65 3 0.404798 10.775857697303826 11.677207730781271 5.067668601619419 -1 0 0
1080 108 10 -0.358962 13.463120328121104 16.913307929738025 1.4368822036322508 0 0 1
999 100 9 -0.358962 11.95107545878044 18.57941412700843 5.038284384786116 -1 0 -1
1006 101 2 -0.091672 8.800572043182926 20.587202024503828 3.650136973600829 1 0 0
512 52 3 0.404798 11.356447132043332 16.585626605273053 7.687508805209692 0 0 1
515 52 8 -0.358962 9.017055217892544 17.146991458189053 5.2075966185096805 0 0 1
1002 101 3 0.404798 10.374213000253617 20.001187753318916 1.8280250348769382 1 0 0
644 65 4 0.404798 9.30492278739417 10.983096559055852 3.335557303991132 -1 0 0
1213 122 7 -0.358962 6.033307261388135 12.129757645196264 0.19519058870498873 1 0 1
507 51 5 0.404798 13.736088801214276 12.253560002498565 0.3804335796935406 0 0 1
1429 143 9 -0.358962 2.1453511956236455 16.05191826167667 7.821817047837918 -1 -1 1
1283 129 7 -0.358962 7.080944199971493 15.077126024533753 0.10887805233064896 1 0 0
1220 122 10 -0.358962 9.864400093178412 13.126457116513858 0.016737617319805054 1 0 1
71 8 1 -0.091672 4.842557868309654 12.932929098277771 13.015121837971812 1 1 -1
72 8 3 0.404798 4.533512001410892 11.719412719246872 12.344658978794207 1 1 -1
78 8 6 0.404798 2.7631626228892006 13.804839804124942 12.072760071680213 1 1 -1
1428 143 6 0.404798 4.067352191853271 17.86396478399187 10.083637880656582 -1 -1 1
1430 143 10 -0.358962 4.27485978615088 17.80588584386927 11.223448144862733 -1 -1 1
524 53 4 0.404798 1.2421973468932535 17.132242959554446 13.766191919044841 1 0 0
1048 105 6 0.404798 7.119058935810284 17.319649388283477 13.431449160710716 0 0 0
1046 105 2 -0.091672 6.566790943663832 18.56192837693676 13.945789883504998 0 0 0