LAMMPS data file via write_data, version 29 Sep 2021, timestep = 5000000

1620 atoms
10 atom types
1458 bonds
9 bond types
1620 angles
10 angle types
1944 dihedrals
12 dihedral types

0 31.303 xlo xhi
0 31.303 ylo yhi
0 31.303 zlo zhi

Masses

1 12.01
2 12.01
3 12.01
4 12.01
5 12.01
6 12.01
7 14.01
8 14.01
9 14.01
10 14.01

Bond Coeffs # harmonic

1 400 1.426
2 400 1.426
3 400 1.426
4 400 1.426
5 549 1.34
6 650 1.16
7 650 1.16
8 650 1.16
9 650 1.16

Angle Coeffs # harmonic

1 70 116.8
2 70 116.8
3 70 121.6
4 70 121.6
5 70 121.6
6 70 121.6
7 70 178.9
8 70 178.9
9 70 178.9
10 70 178.9

Dihedral Coeffs # opls

1 0 0 0 0
2 0 0 0 0
3 0 0 0 0
4 0 0 0 0
5 0 0 0 0
6 0 0 0 0
7 0 0 0 0
8 0 0 0 0
9 0 14 0 0
10 0 14 0 0
11 0 14 0 0
12 0 14 0 0

Atoms # full

216 22 2 -0.091672 5.1923735913166125 6.191353489450599 2.24797666091524 1 0 1
219 22 9 -0.358962 3.8003782701714637 7.073809950187708 4.262544638509609 1 0 1
217 22 5 0.404798 4.489640648519961 6.678523303748566 3.4174021541278288 1 0 1
230 23 10 -0.358962 2.486212975159332 8.036518644852853 0.9353737141130176 1 1 0
588 59 6 0.404798 5.5263480382476144 9.540900666863637 2.6506186670139393 0 1 2
587 59 5 0.404798 4.9056885560770915 9.980594086029116 5.007776349041262 0 1 2
589 59 9 -0.358962 4.591639172989467 9.590933122108332 6.0542644351989825 0 1 2
211 22 1 -0.091672 6.510290416469426 5.949090687735654 2.249955148645424 1 0 1
790 79 10 -0.358962 6.977618258194809 2.871606268085611 2.8434347304823167 2 1 0
788 79 6 0.404798 7.49570244134488 1.863739634668392 3.091212063994004 2 1 0
27 3 5 0.404798 0.5442332259916025 4.290676623067856 4.0974247771528365 0 0 0
28 3 6 0.404798 0.46701502095023373 2.96122494643082 2.0509432913362833 0 0 0
657 66 5 0.404798 5.829664101463277 5.474126538008797 7.664140462177513 -1 0 1
30 3 10 -0.358962 0.9629472929423439 2.0566588015790295 1.5204612186949906 0 0 0
29 3 9 -0.358962 1.0965748597270182 4.517754614193384 5.091886588392826 0 0 0
535 54 8 -0.358962 3.9879003007839424 2.3955617748917684 3.365657870821786 0 0 0
228 23 6 0.404798 1.5970648138296368 8.304599338319145 0.24028502605455185 1 1 0
213 22 7 -0.358962 7.9575849799575815 5.227726885466924 0.2218778025971603 1 0 1
534 54 4 0.404798 3.9977812274346767 1.2694605582182812 3.0874522271027294 0 0 0
653 66 7 -0.358962 2.307674138929788 2.154775461472899 7.624295057066737 -1 0 1
358 36 6 0.404798 15.106801898465001 3.572449984660793 5.6638531005628145 0 0 0
476 48 2 -0.091672 9.666048706481385 4.812741037057569 7.51750135374104 1 1 -1
658 66 6 0.404798 5.6568723062276645 3.2239650507794297 6.821482727732115 -1 0 1
539 54 9 -0.358962 1.485898341620751 0.420091373738656 5.123912014791398 0 0 0
480 48 10 -0.358962 9.171464717392237 7.36429961745724 7.686963127794349 1 1 -1
400 40 10 -0.358962 14.662565603375722 7.425479050161758 0.31465357478826267 0 -1 0
125 13 8 -0.358962 15.064908886500996 8.364212004229271 7.336717019490838 -1 0 1
660 66 10 -0.358962 6.122239002398277 2.365749629920775 6.1949844729558095 -1 0 1
472 48 3 0.404798 11.63663301714693 5.076686770581634 6.156826569922686 1 1 -1
590 59 10 -0.358962 5.717008814925075 8.835301610786406 1.7498532060613177 0 1 2
398 40 6 0.404798 15.173122655128386 7.975160360876167 1.1994032285146703 0 -1 0
218 22 6 0.404798 4.390078462807077 5.745982487123315 1.1479101155393452 1 0 1
1403 141 7 -0.358962 14.675472270549859 4.401651812422336 0.1481807720522197 1 1 0
689 69 9 -0.358962 8.340292121328511 10.141464418873582 5.564146284792419 -1 0 0
220 22 10 -0.358962 3.6722822121784633 5.318220644509473 0.3433056570909233 1 0 1
690 69 10 -0.358962 12.683079418230955 10.203095980427824 6.577731478684857 -1 0 0
391 40 1 -0.091672 15.099416559293262 9.641435008609568 2.883258586175212 0 -1 0
473 48 7 -0.358962 12.514968436288427 5.74181415732998 5.793876979362943 1 1 -1
1402 141 3 0.404798 13.895742408177119 4.122617094301139 0.9604374485991051 1 1 0
656 66 2 -0.091672 4.967172136013669 4.314881057001749 7.407748544943869 -1 0 1
214 22 4 0.404798 7.292179594986257 6.106261997538558 3.4051623662863864 1 0 1
1409 141 9 -0.358962 10.160920346327394 3.4276379867113134 3.9598586930079214 1 1 0
786 79 2 -0.091672 8.184388275065258 0.5772858986569633 3.4223996715511795 2 1 0
1405 141 8 -0.358962 13.359011984776307 1.3142330103478925 2.6687916721456078 1 1 0
360 36 10 -0.358962 14.38639173527002 2.754231750578335 5.2674592134716365 0 0 0
1410 141 10 -0.358962 11.403493182401673 6.709366896346924 1.4728505086686403 1 1 0
1408 141 6 0.404798 11.594396212590054 5.6234582531290105 1.8333479981913303 1 1 0
212 22 3 0.404798 7.299209844281029 5.483590215634234 1.142027864089583 1 0 1
1404 141 4 0.404798 13.163736959070754 2.411837301525149 2.3482726101544964 1 1 0
1407 141 5 0.404798 10.923371395729381 3.8178541352490876 3.177554598456959 1 1 0
1401 141 1 -0.091672 12.97027597202113 3.713301282104524 1.9050268532214214 1 1 0
471 48 1 -0.091672 10.625880257607779 4.26228669529606 6.761641981213771 1 1 -1
392 40 3 0.404798 13.811385631780135 9.940596229993515 2.5590351911666125 0 -1 0
393 40 7 -0.358962 12.74884275223756 10.309451999762338 2.275225355335561 0 -1 0
215 22 8 -0.358962 7.899290742484045 6.248401315937739 4.383330275055054 1 0 1
475 48 8 -0.358962 11.304779384526446 1.7635643468411217 7.039122461613959 1 1 -1
1406 141 2 -0.091672 11.850636555377603 4.318078481136866 2.324850747234068 1 1 0
783 79 7 -0.358962 9.732392244811706 0.9734193913174233 0.36259561100818605 2 1 0
782 79 3 0.404798 9.387814696615536 0.5733177444843641 1.395448446168838 2 1 0
474 48 4 0.404798 10.955489075268797 2.8612453490221985 6.902401294398135 1 1 -1
394 40 4 0.404798 15.63023661838998 10.309940633562494 3.9574947648340735 0 -1 0
652 66 3 0.404798 2.9731009700845887 3.0980725451640407 7.7383026916578785 -1 0 1
478 48 6 0.404798 9.350184951772205 6.225438714980693 7.557909208127246 1 1 -1
787 79 5 0.404798 7.77331347319543 0.01468727238611578 4.653610736823332 2 1 0
1361 137 1 -0.091672 3.55372487411387 0.8673017464496194 15.029124726779267 0 1 1
654 66 4 0.404798 3.272731593982331 5.396056576949785 8.65124068237862 -1 0 1
845 85 8 -0.358962 15.476048722800657 7.277275991272031 10.954700028819122 0 1 0
307 31 5 0.404798 6.191325988576967 9.1014509747705 10.322152996549836 0 1 1
1018 102 6 0.404798 2.823765394226025 6.08706652461802 13.033958567635516 0 1 0
361 37 1 -0.091672 1.273402396909765 9.630640481621587 10.144676558168573 1 0 -1
1020 102 10 -0.358962 3.9596759814075058 6.203507754607967 12.829633915842374 0 1 0
1363 137 7 -0.358962 3.410120482862028 2.8909222797622673 13.463112663787383 0 1 1
309 31 9 -0.358962 5.337329208812873 8.481069525346795 10.803210512703231 0 1 1
655 66 8 -0.358962 3.013798619837307 6.311230491370554 9.315326835127436 -1 0 1
922 93 3 0.404798 7.209365514192296 5.1317105067516025 11.98732917189507 1 -1 0
923 93 7 -0.358962 7.073091233223658 5.241646460167722 10.840619394237104 1 -1 0
127 13 5 0.404798 13.03731453793873 9.180321787758366 9.993953738162844 -1 0 1
1016 102 2 -0.091672 1.4603293625143594 5.971719732352792 13.31906559506996 0 1 0
1011 102 1 -0.091672 0.8448188395853361 6.2608238719866485 14.473693494216565 0 1 0
921 93 1 -0.091672 7.234970089471965 5.178535182369889 13.423151810730728 1 -1 0
126 13 2 -0.091672 14.069120782346609 10.195249964049374 10.078039044896613 -1 0 1
1346 135 2 -0.091672 11.904395879191426 10.138136380685568 14.996960682605751 0 0 0
930 93 10 -0.358962 6.285277470640542 1.932383539844577 12.778851125523856 1 -1 0
121 13 1 -0.091672 15.022995580789837 10.248942151455328 9.138443384115842 -1 0 1
362 37 3 0.404798 0.2723858478611174 8.786033194394083 9.515543706880088 1 0 -1
896 90 2 -0.091672 4.5199069674235055 10.117234337968775 14.86507533212051 -1 0 0
928 93 6 0.404798 6.59929141517776 2.873303568216962 13.38023676404342 1 -1 0
926 93 2 -0.091672 6.998783059452832 4.037259079038051 14.084441869265586 1 -1 0
364 37 4 0.404798 1.4527326617392873 9.564742896918487 11.616182083610449 1 0 -1
93 10 7 -0.358962 0.5134516079806948 2.187118645101882 11.769050998320994 1 0 0
1017 102 5 0.404798 0.726137938798406 5.55399137718037 12.161654784352166 0 1 0
1613 162 7 -0.358962 4.4043382451093045 1.7738925865890034 10.183695344839148 0 0 1
365 37 8 -0.358962 1.5795097438752286 9.420473636090962 12.760172426311204 1 0 -1
306 31 2 -0.091672 7.179968432950957 9.986733620161928 9.73066915867825 0 1 1
847 85 5 0.404798 15.22178310129256 4.26309896299263 12.895220200203793 0 1 0
187 19 5 0.404798 10.636121155575001 0.8623455609532974 13.099803950894419 1 0 -1
1362 137 3 0.404798 3.4270726286130886 1.9481759049726544 14.138791499967855 0 1 1
898 90 6 0.404798 5.063287516706504 8.787650524183482 14.836601157429604 -1 0 0
659 66 9 -0.358962 6.450466087282776 6.410380279711085 7.953335584876032 -1 0 1
1012 102 3 0.404798 1.5596757201334024 6.687262944031222 15.590684730841936 0 1 0
124 13 4 0.404798 15.06437010251187 9.258224089735048 8.075866552962555 -1 0 1
651 66 1 -0.091672 3.7022711622251765 4.302570777838034 7.849872939079342 -1 0 1
924 93 4 0.404798 7.960576346283974 6.305123329425525 13.954126635259591 1 -1 0
275 28 8 -0.358962 10.825522675384661 4.513845554036701 15.029315188087832 1 1 -1
477 48 5 0.404798 8.784800280991004 3.9352743051226144 8.251224373312514 1 1 -1
925 93 8 -0.358962 8.55502723971029 7.16701940370939 14.45348950665835 1 -1 0
843 85 7 -0.358962 12.355423480782035 4.847262197942795 9.00964666850737 0 1 0
313 32 7 -0.358962 13.217696300147455 0.00376077566033399 9.316845678544958 0 1 0
927 93 5 0.404798 7.496109817510616 3.9435070058753006 15.37961489169703 1 -1 0
844 85 4 0.404798 14.914585137001914 6.263240262128994 10.908982481872032 0 1 0
92 10 3 0.404798 0.12199548654786567 2.18860444594813 10.677098669618358 1 0 0
1343 135 7 -0.358962 12.464876789032965 7.435245631595129 12.898099623892051 0 0 0
305 31 8 -0.358962 9.47354184770415 7.615083674053039 11.032884680227188 0 1 1
304 31 4 0.404798 9.03181954769957 8.536132208091109 10.483202042998375 0 1 1
841 85 1 -0.091672 14.065821013335315 5.06501604985266 10.974742262319927 0 1 0
1612 162 3 0.404798 4.946380811295463 0.7522078079301672 10.094532210371781 0 0 1
846 85 2 -0.091672 14.244502918457965 4.11871847927304 11.90651134802915 0 1 0
479 48 9 -0.358962 8.163407703549657 3.1000920799363567 8.76302684898681 1 1 -1
129 13 9 -0.358962 12.207739296846743 8.377533645406588 9.880216746455375 -1 0 1
189 19 9 -0.358962 10.08116646978345 1.864447632502962 13.282606133963151 1 0 -1
842 85 3 0.404798 13.072231739561913 4.912024100291815 9.9193674012192 0 1 0
301 31 1 -0.091672 8.489110569079394 9.729719814232945 9.855931783610208 0 1 1
1342 135 3 0.404798 12.218650302730866 8.512798481686369 13.250026242631053 0 0 0
1341 135 1 -0.091672 11.875156408643395 9.793644620093351 13.70232927581978 0 0 0
850 85 10 -0.358962 12.803670029793166 2.045556549688889 11.766776535229631 0 1 0
848 85 6 0.404798 13.44732526998612 3.0075950168822576 11.842867195220952 0 1 0
173 18 7 -0.358962 15.309991508477442 7.851653702166984 13.882989925175414 -2 0 0
900 90 10 -0.358962 5.5290424232887805 7.732797816741585 14.962926538399348 -1 0 0
810 81 10 -0.358962 13.983212067205399 2.2947462166844907 15.389494577602933 1 2 0
366 37 2 -0.091672 2.0913261659896265 10.415649543436123 9.43028067964191 1 0 -1
1019 102 9 -0.358962 0.06861344151369561 5.3261838848298915 11.233557129591498 0 1 0
884 89 4 0.404798 4.003486239089122 7.279729057010974 21.457541250454216 1 0 0
886 89 2 -0.091672 4.070786476872111 5.8121758528418885 19.53189403059368 1 0 0
881 89 1 -0.091672 4.546494083776054 6.852393210129188 20.229927045369195 1 0 0
885 89 8 -0.358962 3.58504662785909 7.620454181853009 22.48438819312304 1 0 0
888 89 6 0.404798 4.82869338193276 5.39047826904561 18.42167812449976 1 0 0
882 89 3 0.404798 5.70210184496245 7.542426058190961 19.73954928786779 1 0 0
883 89 7 -0.358962 6.589781540074958 8.132860601970169 19.282371228458626 1 0 0
887 89 5 0.404798 2.91943259992828 5.105178528443426 19.97738280564608 1 0 0
890 89 10 -0.358962 5.3666383942253555 5.118640901275296 17.430557762833523 1 0 0
889 89 9 -0.358962 2.004244695386823 4.453024136363625 20.265003622880656 1 0 0
1368 137 6 0.404798 2.8586161394267573 2.2178530945375936 16.82977230741608 0 1 1
1370 137 10 -0.358962 2.5133658409206383 3.2205836423107166 17.299807989378472 0 1 1
918 92 6 0.404798 14.233401034359087 10.364505712018241 19.851448198970342 -1 1 0
1289 129 9 -0.358962 6.074030532520893 1.3033900870656983 18.388284510844347 0 0 0
1287 129 5 0.404798 7.18158123704025 1.5284372105457384 18.64959889197149 0 0 0
580 58 10 -0.358962 6.5896929248762435 9.132153292740595 22.914059266438745 0 0 0
1286 129 2 -0.091672 8.492151629557856 1.9238467645248727 19.047439905622088 0 0 0
1013 102 7 -0.358962 2.2066479714967913 6.934890821522064 16.52111860784561 0 1 0
879 88 9 -0.358962 4.7596719142623165 0.1550384103437506 21.45386870136475 1 0 0
575 58 8 -0.358962 12.180402179656696 7.742795493249909 23.24641517565127 0 0 0
1284 129 4 0.404798 7.500480683514965 3.347133893191441 20.83327921664116 0 0 0
578 58 6 0.404798 7.676979239571807 8.966222677618385 23.282672175067656 0 0 0
877 88 5 0.404798 3.950585072334115 0.8833464973394207 21.854550373553298 1 0 0
439 44 9 -0.358962 0.6466515076446118 9.075287761366264 21.495673556710056 0 0 -1
1285 129 8 -0.358962 6.552709483359998 3.697756672807066 21.40283464202169 0 0 0
1470 147 10 -0.358962 13.019773327319555 1.0228533072836268 22.224069564302614 0 1 -1
760 76 10 -0.358962 0.8426721211384284 0.9108352745830297 18.701204301064067 1 0 0
572 58 3 0.404798 9.142177667093838 7.111270346125465 21.805753688467025 0 0 0
573 58 7 -0.358962 8.58326002406719 6.447028536244224 21.0363423138101 0 0 0
911 92 1 -0.091672 14.855544030071986 9.25124832644521 22.00271831939455 -1 1 0
1390 139 10 -0.358962 9.091644587886451 9.543321791325688 16.647316364317234 0 1 1
876 88 2 -0.091672 2.982583803962116 1.7860640017506528 22.478413487789208 1 0 0
1281 129 1 -0.091672 8.603888058140678 2.8479159501130074 20.01139587349742 0 0 0
914 92 4 0.404798 15.559867187444654 8.148496808205053 22.70615781330414 -1 1 0
339 34 9 -0.358962 9.931434103538967 0.4363733037906034 22.07629584221578 0 2 0
929 93 9 -0.358962 7.94000250695694 4.023976925598892 16.44829812105845 1 -1 0
271 28 1 -0.091672 12.226081483109112 5.256681807908251 17.0878656147091 1 1 -1
1468 147 6 0.404798 13.648033965018978 1.902282956686739 22.645367613419445 0 1 -1
1466 147 2 -0.091672 14.494824051297703 2.861679485522949 23.334560423932015 0 1 -1
1290 129 10 -0.358962 10.435696513445418 1.038562331546125 17.54653710749196 0 0 0
874 88 4 0.404798 1.232230375537846 0.16956854307867447 22.3258326402218 1 0 0
1282 129 3 0.404798 9.82128761722443 3.5433073575749954 20.25960900348165 0 0 0
278 28 6 0.404798 12.37518510093383 6.517584500284659 19.13847496534555 1 1 -1
274 28 4 0.404798 11.509208296020386 4.706453079237488 15.946417302556963 1 1 -1
1283 129 7 -0.358962 10.841768193782304 4.090189048878814 20.33130084465259 0 0 0
916 92 2 -0.091672 14.833829924976545 9.298476962775917 20.663726969948723 -1 1 0
872 88 3 0.404798 0.7549131631328585 2.2214262737832353 23.476388241980853 1 0 0
806 81 2 -0.091672 15.64614366243879 0.6709640475392445 16.543002907515994 1 2 0
917 92 5 0.404798 15.485467094073025 8.256197449450076 19.839914624982875 -1 1 0
437 44 5 0.404798 0.2318462910466891 8.889070993883367 20.428499771948115 0 0 -1
574 58 4 0.404798 11.037337134954713 7.716868715807556 23.050634504976745 0 0 0
1348 135 6 0.404798 12.520250605822358 9.285676355744497 15.974115329072099 0 0 0
273 28 7 -0.358962 14.724782390574912 4.6222953363171495 17.407576079779272 1 1 -1
277 28 5 0.404798 10.27237670922776 6.351888798115903 17.962562243510305 1 1 -1
276 28 2 -0.091672 11.654462430042331 6.0588456809311735 17.996372498268826 1 1 -1
912 92 3 0.404798 14.42446924557111 10.275957317722776 22.86149566928027 -1 1 0
272 28 3 0.404798 13.627411305169987 4.943576343977659 17.21224259248599 1 1 -1
280 28 10 -0.358962 12.95520749613012 6.809925134851172 20.099573790516384 1 1 -1
1350 135 10 -0.358962 12.951780272377263 8.599936642148258 16.804261816473957 0 0 0
1288 129 6 0.404798 9.596736688943407 1.457265290502687 18.22949702095353 0 0 0
279 28 9 -0.358962 9.12585243505033 6.513633867863451 17.89241529991061 1 1 -1
808 81 6 0.404798 14.746508938138016 1.6474982114929624 15.976050536615492 1 2 0
871 88 1 -0.091672 1.7349711168259752 1.398291437910443 22.776230544697825 1 0 0
878 88 6 0.404798 3.4479011689052097 3.1097337151767093 22.92762752979522 1 0 0
803 81 7 -0.358962 12.985606748261947 0.13793381519702047 18.694823073083647 1 2 0
1388 139 6 0.404798 8.924088140731323 10.112840993516022 17.64389687073408 0 1 1
802 81 3 0.404798 14.075591631243396 0.12691816944869566 18.29807185802309 1 2 0
801 81 1 -0.091672 15.339571257432933 0.05040172615591286 17.690398105298797 1 2 0
1140 114 10 -0.358962 0.5550197326228637 5.768774712300787 23.183083933471767 1 0 -1
1366 137 2 -0.091672 3.359515628699677 0.9852170493596615 16.34972259835628 0 1 1
571 58 1 -0.091672 9.668046694882415 7.848688084510319 22.86730377063792 0 0 0
1540 154 10 -0.358962 15.252767203413736 4.715631288421591 20.593666425589294 0 1 0
899 90 9 -0.358962 2.3813181744948215 10.270874830113481 16.375671034019593 -1 0 0
880 88 10 -0.358962 3.8510749092611123 4.135669285979246 23.2888851279858 1 0 0
897 90 5 0.404798 3.3342530543348046 10.201761289007742 15.717842482551228 -1 0 0
1217 122 5 0.404798 4.988974538056635 5.845692322661322 25.75802185691331 2 1 0
1218 122 6 0.404798 5.268480784337484 3.4320829677586917 25.90201227988692 2 1 0
1216 122 2 -0.091672 4.975983198964546 4.654906672295631 26.57379954762183 2 1 0
1214 122 4 0.404798 4.481062653055236 5.956243329813494 28.520319908742092 2 1 0
1215 122 8 -0.358962 4.222407405550511 6.931803148305467 29.092141987690212 2 1 0
1211 122 1 -0.091672 4.643341228318426 4.694338183054051 27.87125647149654 2 1 0
1212 122 3 0.404798 4.42737514449293 3.5978676745812677 28.706287095523756 2 1 0
1133 114 7 -0.358962 1.59405168825331 6.607057673684453 26.960500964604087 1 0 -1
1220 122 10 -0.358962 5.655510837753405 2.4969832716152536 25.335094086250045 2 1 0
1132 114 3 0.404798 1.0396201374443816 7.406139859211529 26.32830378018366 1 0 -1
1219 122 9 -0.358962 5.193662147616451 6.747761047161438 25.058039718439264 2 1 0
1469 147 9 -0.358962 13.426048142941003 5.104125625522647 24.05178288234967 0 1 -1
1526 153 2 -0.091672 13.344734990649485 0.09358585741714265 28.945598471005443 -1 1 -1
1131 114 1 -0.091672 0.145736919882183 8.228720304378516 25.658056240336393 1 0 -1
1213 122 7 -0.358962 4.387842621835789 2.7189733020716456 29.462317411827563 2 1 0
1523 153 7 -0.358962 10.064181769243543 0.9622397188147119 28.02283208772857 -1 1 -1
833 84 7 -0.358962 6.527380338094616 9.0295995807684 26.89621848602369 -1 0 0
832 84 3 0.404798 6.220179223667859 9.762687535469153 27.741090968797653 -1 0 0
838 84 6 0.404798 3.4324526136455753 10.101182915709478 28.28253219219529 -1 0 0
257 26 5 0.404798 7.05659655953569 0.3747549850742958 28.895735113890527 0 1 1
259 26 9 -0.358962 7.093874299343392 1.533223269348934 28.849243198164217 0 1 1
1430 143 10 -0.358962 13.655282609268372 7.224431157074772 28.17502279071598 0 0 -1
720 72 10 -0.358962 1.0595932112677464 2.6542674815994696 27.387929427890903 1 -1 0
716 72 2 -0.091672 0.8215177238536773 0.6503723966129311 29.011683262215165 1 -1 0
718 72 6 0.404798 0.8930974178908324 1.7333262431244105 28.073309892339214 1 -1 0
840 84 10 -0.358962 2.5087187397450164 9.58840324775288 27.803603468113288 -1 0 0
1467 147 5 0.404798 13.94282394396893 4.0923940416628275 23.81738588052796 0 1 -1
341 35 1 -0.091672 9.84023719197306 9.652938809939256 30.73378515405087 0 0 0
227 23 5 0.404798 0.03836335594502946 9.88320495606108 30.851012402967886 1 1 -1
1422 143 3 0.404798 15.058440033915307 3.778748991834889 27.472410045202 0 0 -1
579 58 9 -0.358962 9.85716757115204 10.347459908342664 25.56507531968592 0 0 0
1522 153 3 0.404798 11.150173105650476 0.5666416836573872 27.92421685524582 -1 1 -1
107 11 5 0.404798 10.543584595675137 4.211029581071561 28.53086157881586 0 1 0
102 11 3 0.404798 9.01774499691454 4.649955828796555 25.081941561053764 0 1 0
1428 143 6 0.404798 14.606840495041705 6.565728097146077 28.25406600465784 0 0 -1
110 11 10 -0.358962 7.983606170354837 6.431007735478085 27.845531189294938 0 1 0
104 11 4 0.404798 10.76575849346256 3.0812601062691996 25.76213218727312 0 1 0
109 11 9 -0.358962 11.263837688219382 3.8853205547078966 29.37983101993502 0 1 0
105 11 8 -0.358962 11.587248492049953 2.2836725604113086 25.57609934602936 0 1 0
223 23 7 -0.358962 0.5057554826071877 5.209633937546443 29.88963861041575 1 1 -1
1530 153 10 -0.358962 12.704039223266749 1.5374671036360232 30.929594190846668 -1 1 -1
343 35 7 -0.358962 7.495393463539781 8.493456807985448 30.606401898553244 0 0 0
101 11 1 -0.091672 9.801371703166506 4.051223411184907 26.187952848013907 0 1 0
577 58 5 0.404798 9.57209375064143 9.62951702448116 24.699690478052432 0 0 0
106 11 2 -0.091672 9.7316962446194 4.5447709739702375 27.43180013175364 0 1 0
1528 153 6 0.404798 12.987538749369836 0.8889718585049404 30.010528414447382 -1 1 -1
108 11 6 0.404798 8.721131629191806 5.538618123230193 27.772750942338625 0 1 0
350 35 10 -0.358962 10.782188624904638 7.833709147776866 27.90804707305799 0 0 0
342 35 3 0.404798 8.549229933111253 8.977990806868876 30.62238361372952 0 0 0
346 35 2 -0.091672 10.920281365074697 9.329542667036272 30.009547970366178 0 0 0
103 11 7 -0.358962 8.291049917223019 5.188994540439332 24.356027296857246 0 1 0
348 35 6 0.404798 10.758826061162098 8.453287968254564 28.88844303613974 0 0 0
226 23 2 -0.091672 0.493913491023093 8.533249469151233 30.677965878816174 1 1 -1
1138 114 6 0.404798 0.14571567581089645 6.694265088009188 23.750126905797767 1 0 -1
347 35 5 0.404798 12.19452056583367 9.910869143137646 30.051474012851926 0 0 0
222 23 3 0.404798 0.1899427495360278 6.3236337486488745 29.959400542661726 1 1 -1
576 58 2 -0.091672 9.034245040160386 8.767358136865234 23.608883698864506 0 0 0
1423 143 7 -0.358962 14.230789157365075 3.2957892159342275 26.818694628842433 0 0 -1
873 88 7 -0.358962 0.005973620834283871 2.8990410172216827 24.04693868929771 1 0 0
349 35 9 -0.358962 13.25835582087406 10.372881172873619 30.031488996138663 0 0 0
407 41 5 0.404798 1.270432760541626 15.818683333177951 4.4919944494771995 1 0 0
406 41 2 -0.091672 1.933272888220776 14.66896444913815 3.928052368617726 1 0 0
344 35 4 0.404798 9.968788709106226 10.550667440462114 0.5613839907528927 0 0 1
560 56 10 -0.358962 15.07875587316914 20.0894809449461 2.1901238027161227 0 1 1
164 17 4 0.404798 6.232125600217575 16.30249650158265 5.672128806097529 0 0 0
161 17 1 -0.091672 7.46415927684782 15.833784046148098 6.083274445788948 0 0 0
165 17 8 -0.358962 5.160830675355718 16.560976351321358 5.310030309538347 0 0 0
408 41 6 0.404798 3.027619001520102 14.825909458785594 2.982815770216041 1 0 0
401 41 1 -0.091672 1.5320788060356376 13.408209632721745 4.14051539781075 1 0 0
410 41 10 -0.358962 3.735878560251543 15.14709624830166 2.1221140567999925 1 0 0
402 41 3 0.404798 2.0320492697958445 12.297371818447049 3.4717643729533707 1 0 0
583 59 7 -0.358962 6.252439419127136 12.76428050400333 1.3869070252477842 0 1 2
584 59 4 0.404798 5.285358751472042 12.653494378995388 4.7318913757045555 0 1 2
403 41 7 -0.358962 2.4780942065100167 11.449139990353961 2.8181997788088764 1 0 0
582 59 3 0.404798 5.9762229608867345 12.332942028469873 2.4277007315945016 0 1 2
585 59 8 -0.358962 4.838700191002927 13.41984201447337 5.479425577983547 0 1 2
118 12 6 0.404798 3.734071797490535 19.842264475156977 7.054426948883186 0 0 0
39 4 9 -0.358962 3.15987408042155 18.957990583139267 4.107747007452781 0 0 1
120 12 10 -0.358962 4.336115394942812 18.934899316110027 7.454216854437539 0 0 0
37 4 5 0.404798 3.157679672455405 18.672486813992972 2.9834326564369276 0 0 1
640 64 10 -0.358962 6.915588819338959 19.16518610784633 4.789979133430195 2 1 1
687 69 5 0.404798 9.38455740359439 10.63770556846757 5.658245793698896 -1 0 0
624 63 4 0.404798 7.766673434454128 15.664220352034938 1.6067835636129044 -1 0 1
625 63 8 -0.358962 6.850740022364395 15.867940393415047 2.288812959059168 -1 0 1
638 64 6 0.404798 7.373603614690375 19.687339543045212 3.860905282868012 2 1 1
581 59 1 -0.091672 5.6137117106517955 11.758210856232358 3.666222307092398 0 1 2
636 64 2 -0.091672 7.973650251637354 20.24682178274814 2.6995616282601795 2 1 1
36 4 2 -0.091672 3.3724667092040614 18.32870541534066 1.6504045151902382 0 0 1
637 64 5 0.404798 9.17587876368016 19.62503314764818 2.2318514001374004 2 1 1
409 41 9 -0.358962 0.8046254260859352 16.776164553618486 4.952269595869467 1 0 0
34 4 4 0.404798 1.2410005696113566 17.274778419306863 1.338093586601327 0 0 1
40 4 10 -0.358962 5.6701688298472295 18.98355966606387 0.6302581788927037 0 0 1
38 4 6 0.404798 4.670415251756541 18.71125365246612 1.1517389703726395 0 0 1
586 59 2 -0.091672 5.392203896618468 10.440954623891322 3.772853944609954 0 1 2
162 17 3 0.404798 8.543790264616728 16.120569078130153 5.254917828121956 0 0 0
1299 130 9 -0.358962 13.5425367400963 17.87211676024948 0.6415972272255408 0 0 1
682 69 3 0.404798 12.05725046951011 12.855493803634426 4.508856832492694 -1 0 0
621 63 1 -0.091672 8.867922053711029 15.51441778369348 0.738671727216699 -1 0 1
31 4 1 -0.091672 2.458812560625119 17.812600712193998 0.8170546573811801 0 0 1
345 35 8 -0.358962 9.9507955462343 11.282065234377038 1.4615692516260181 0 0 1
684 69 4 0.404798 9.581417044583075 13.125804752904935 4.283941020813375 -1 0 0
683 69 7 -0.358962 13.149718005733657 13.023321029728088 4.156793388214424 -1 0 0
623 63 7 -0.358962 11.255720116181328 14.887850550813567 1.4888757099175425 -1 0 1
639 64 9 -0.358962 10.20441505443058 19.21220663468454 1.8893789684330435 2 1 1
622 63 3 0.404798 10.177437867783379 15.1755783757754 1.1724581712872624 -1 0 1
557 56 5 0.404798 12.26734253307043 20.378455013910393 4.030792331942223 0 1 1
559 56 9 -0.358962 11.785887815501939 19.83426834486003 4.935039089155028 0 1 1
1291 130 1 -0.091672 14.509339807786612 14.591531530315326 0.9605070204190471 0 0 1
686 69 2 -0.091672 10.61379298689958 11.306418959105502 5.503540786101692 -1 0 0
688 69 6 0.404798 11.71635889575687 10.6802116449078 6.149465139457625 -1 0 0
681 69 1 -0.091672 10.73534606196395 12.469327705048553 4.848966051922177 -1 0 0
119 12 9 -0.358962 0.48189872121327987 20.64437126359668 5.9503844341771135 0 0 0
163 17 7 -0.358962 9.414445207988148 16.26997225138868 4.503094270940261 0 0 0
938 94 6 0.404798 15.226443926527823 15.150145768700071 7.035194818535243 0 0 -2
1292 130 3 0.404798 15.170758183646084 13.477224799504063 1.4035688008786589 0 0 1
937 94 5 0.404798 14.18315605108215 17.207779137008064 6.26912888013385 0 0 -2
1298 130 6 0.404798 15.305405921548166 15.926940415955535 2.8318415353962596 0 0 1
685 69 8 -0.358962 8.628941358086344 13.552351099050444 3.777533861465217 -1 0 0
936 94 2 -0.091672 14.178384443927945 16.114504518757535 7.145082457425502 0 0 -2
939 94 9 -0.358962 14.31322559400944 18.144177707722246 5.596938731168089 0 0 -2
1297 130 5 0.404798 14.055269499157541 16.900211368599418 1.0132219505766706 0 0 1
1296 130 2 -0.091672 14.623486188024012 15.767835420556231 1.5920762894381928 0 0 1
370 37 10 -0.358962 1.7187669237150198 10.492316150697718 6.850232449584172 1 0 -1
404 41 4 0.404798 0.45413557498035945 13.22629115496095 5.07278749850785 1 0 0
558 56 6 0.404798 14.032546099535208 20.53538690759357 2.4186254006055417 0 1 1
117 12 5 0.404798 1.5773367186214127 20.81979341870692 6.289268843302331 0 0 0
166 17 2 -0.091672 7.548575215156593 15.327392475627832 7.321031046912099 0 0 0
35 4 8 -0.358962 0.18633625889470906 16.97891195240059 1.7198607912225203 0 0 1
168 17 6 0.404798 8.74180981144297 14.819905030116672 7.822148572611597 0 0 0
7 1 5 0.404798 2.359719728035562 14.404121809407341 9.151050984172645 2 1 0
6 1 2 -0.091672 2.3794678840680286 15.139142035422864 10.39962074124453 2 1 0
1 1 1 -0.091672 1.8115251075648793 14.710599212565223 11.535134737631015 2 1 0
8 1 6 0.404798 3.0408862327952355 16.398181238959193 10.353055235309139 2 1 0
10 1 10 -0.358962 3.6024597372980067 17.404741840370445 10.483711062095256 2 1 0
895 90 8 -0.358962 4.338352156456474 13.61792740234109 14.526005064474331 -1 0 0
894 90 4 0.404798 4.611180828267918 12.491338779622222 14.48170414880479 -1 0 0
1063 107 7 -0.358962 6.761782931493645 16.45764806992959 12.007023442996966 0 0 0
1061 107 1 -0.091672 5.346462530487698 17.727100174681297 13.775752612780087 0 0 0
2 1 3 0.404798 1.9579300848807282 15.446332489183423 12.785209521509257 2 1 0
893 90 7 -0.358962 7.379362200548185 10.910617407163159 13.078362793530447 -1 0 0
1062 107 3 0.404798 6.181527799607353 17.085433565121278 12.791108452979325 0 0 0
1064 107 4 0.404798 4.229157669532402 18.535688525696298 13.437667793992174 0 0 0
1545 155 8 -0.358962 1.2304998133959442 17.41346543244316 7.959794940490658 0 0 0
934 94 4 0.404798 12.008608388539342 16.76327231683682 8.149663141866217 0 0 -2
169 17 9 -0.358962 5.684201735073464 15.274822325090778 9.102632262047452 0 0 0
1270 127 10 -0.358962 7.0331547341087575 19.736677376687446 8.921537364204166 0 0 0
1268 127 6 0.404798 8.172450132414586 19.919408308868906 9.040765609018377 0 0 0
1065 107 8 -0.358962 3.3345274657271067 19.23328371765505 13.195598238329074 0 0 0
891 90 1 -0.091672 5.13925689478679 11.17044664783045 14.314848579270162 -1 0 0
167 17 5 0.404798 6.5118414189698335 15.25890284721197 8.290007429150446 0 0 0
4 1 4 0.404798 1.1060156049222156 13.478639195405295 11.56500429863505 2 1 0
302 31 3 0.404798 9.439334704480716 10.463713147599519 9.196164969225775 0 1 1
892 90 3 0.404798 6.337307257076253 11.042240162257821 13.57070102520816 -1 0 0
369 37 9 -0.358962 3.8746014086960834 11.68364823282187 10.901112701288449 1 0 -1
5 1 8 -0.358962 0.48626006641228997 12.499274556006913 11.613460015817724 2 1 0
975 98 8 -0.358962 7.806181404085081 13.198483069314978 15.331328310279988 0 0 0