LAMMPS data file
# Generated by Playmol on 6-Jan-2025 at 13:14:22

3 atom types
3 bond types
3 angle types
3 dihedral types

20 atoms
18 bonds
20 angles
24 dihedrals

-3.91499996 3.91499996 xlo xhi
-3.06424999 3.06424999 ylo yhi
-3.22222686 3.22222686 zlo zhi
0.00000000 1.00014198 0.00000000 xy xz yz

Masses

1 12.01 # CZ
2 12.01 # CM
3 14.01 # NZ

# Elements: C? C? N?

Pair Coeffs # lj/cut/coul/long

1 0.0660 3.30000 # CZ
2 0.0760 3.55000 # CM
3 0.1700 3.20000 # NZ

Bond Coeffs # harmonic

1 650.0 1.160 # CZ NZ
2 400.0 1.426 # CZ CM
3 549.0 1.340 # CM CM

Angle Coeffs # harmonic

1 70.0 178.9 # CM CZ NZ
2 70.0 116.8 # CZ CM CZ
3 70.0 121.6 # CM CM CZ

Dihedral Coeffs # opls

1 0.0 0.0 0.0 0.0 # CZ CM CZ NZ
2 0.0 0.0 0.0 0.0 # CM CM CZ NZ
3 0.0 14.0 0.0 0.0 # CZ CM CM CZ

Atoms

1 1 2 -0.091672 3.10975194 -2.20660008E-02 4.96957588 # C1
2 1 1 0.404798 3.84506607 -6.97859973E-02 6.18944120 # C2
3 1 3 -0.358962 4.43723822 -0.110319003 7.18806219 # N1
4 1 1 0.404798 3.24771190 -1.10234201 4.04587507 # C3
5 1 3 -0.358962 3.38956308 -1.95889902 3.27407002 # N2
6 1 2 -0.091672 2.30369091 1.05074406 4.71748495 # C1B
7 1 1 0.404798 1.53779495 1.11771595 3.51637506 # C2B
8 1 1 0.404798 2.18752408 2.14064503 5.63604307 # C3B
9 1 3 -0.358962 0.909847975 1.16346300 2.54002500 # N1B
10 1 3 -0.358962 2.08702993 3.04722905 6.35539007 # N2B
11 2 2 -0.091672 5.72038984 3.04218411 1.47487700 # C1
12 2 1 0.404798 4.98507595 2.99446392 0.255012989 # C2
13 2 3 -0.358962 4.39290380 2.95393109 -0.743609011 # N1
14 2 1 0.404798 5.58242989 1.96190798 2.39857793 # C3
15 2 3 -0.358962 5.44057894 1.10535097 3.17038393 # N2
16 2 2 -0.091672 6.52645111 4.11499405 1.72696900 # C1B
17 2 1 0.404798 7.29234695 4.18196583 2.92807889 # C2B
18 2 1 0.404798 6.64261818 5.20489502 0.808411002 # C3B
19 2 3 -0.358962 7.92029381 4.22771311 3.90442801 # N1B
20 2 3 -0.358962 6.74311209 6.11147881 8.90640020E-02 # N2B

Bonds

1 2 1 2 # C1 C2
2 2 1 4 # C1 C3
3 3 1 6 # C1 C1B
4 1 2 3 # C2 N1
5 1 4 5 # C3 N2
6 2 6 7 # C1B C2B
7 2 6 8 # C1B C3B
8 1 7 9 # C2B N1B
9 1 8 10 # C3B N2B
10 2 11 12 # C1 C2
11 2 11 14 # C1 C3
12 3 11 16 # C1 C1B
13 1 12 13 # C2 N1
14 1 14 15 # C3 N2
15 2 16 17 # C1B C2B
16 2 16 18 # C1B C3B
17 1 17 19 # C2B N1B
18 1 18 20 # C3B N2B

Angles

1 2 2 1 4 # C2 C1 C3
2 3 2 1 6 # C2 C1 C1B
3 3 4 1 6 # C3 C1 C1B
4 1 1 2 3 # C1 C2 N1
5 1 1 4 5 # C1 C3 N2
6 3 1 6 7 # C1 C1B C2B
7 3 1 6 8 # C1 C1B C3B
8 2 7 6 8 # C2B C1B C3B
9 1 6 7 9 # C1B C2B N1B
10 1 6 8 10 # C1B C3B N2B
11 2 12 11 14 # C2 C1 C3
12 3 12 11 16 # C2 C1 C1B
13 3 14 11 16 # C3 C1 C1B
14 1 11 12 13 # C1 C2 N1
15 1 11 14 15 # C1 C3 N2
16 3 11 16 17 # C1 C1B C2B
17 3 11 16 18 # C1 C1B C3B
18 2 17 16 18 # C2B C1B C3B
19 1 16 17 19 # C1B C2B N1B
20 1 16 18 20 # C1B C3B N2B

Dihedrals

1 1 4 1 2 3 # C3 C1 C2 N1
2 2 6 1 2 3 # C1B C1 C2 N1
3 1 2 1 4 5 # C2 C1 C3 N2
4 2 6 1 4 5 # C1B C1 C3 N2
5 3 2 1 6 7 # C2 C1 C1B C2B
6 3 4 1 6 7 # C3 C1 C1B C2B
7 3 2 1 6 8 # C2 C1 C1B C3B
8 3 4 1 6 8 # C3 C1 C1B C3B
9 2 1 6 7 9 # C1 C1B C2B N1B
10 1 8 6 7 9 # C3B C1B C2B N1B
11 2 1 6 8 10 # C1 C1B C3B N2B
12 1 7 6 8 10 # C2B C1B C3B N2B
13 1 14 11 12 13 # C3 C1 C2 N1
14 2 16 11 12 13 # C1B C1 C2 N1
15 1 12 11 14 15 # C2 C1 C3 N2
16 2 16 11 14 15 # C1B C1 C3 N2
17 3 12 11 16 17 # C2 C1 C1B C2B
18 3 14 11 16 17 # C3 C1 C1B C2B
19 3 12 11 16 18 # C2 C1 C1B C3B
20 3 14 11 16 18 # C3 C1 C1B C3B
21 2 11 16 17 19 # C1 C1B C2B N1B
22 1 18 16 17 19 # C3B C1B C2B N1B
23 2 11 16 18 20 # C1 C1B C3B N2B
24 1 17 16 18 20 # C2B C1B C3B N2B
