LAMMPS data file via write_data, version 29 Sep 2021, timestep = 5000000

1620 atoms
10 atom types
1458 bonds
9 bond types
1620 angles
10 angle types
1944 dihedrals
12 dihedral types

0 31.303 xlo xhi
0 31.303 ylo yhi
0 31.303 zlo zhi

Masses

1 12.01
2 12.01
3 12.01
4 12.01
5 12.01
6 12.01
7 14.01
8 14.01
9 14.01
10 14.01

Bond Coeffs # harmonic

1 400 1.426
2 400 1.426
3 400 1.426
4 400 1.426
5 549 1.34
6 650 1.16
7 650 1.16
8 650 1.16
9 650 1.16

Angle Coeffs # harmonic

1 70 116.8
2 70 116.8
3 70 121.6
4 70 121.6
5 70 121.6
6 70 121.6
7 70 178.9
8 70 178.9
9 70 178.9
10 70 178.9

Dihedral Coeffs # opls

1 0 0 0 0
2 0 0 0 0
3 0 0 0 0
4 0 0 0 0
5 0 0 0 0
6 0 0 0 0
7 0 0 0 0
8 0 0 0 0
9 0 14 0 0
10 0 14 0 0
11 0 14 0 0
12 0 14 0 0

Atoms # full

1602 161 3 0.404798 0.9791881161087704 2.0901337782993528 2.720464925545958 -2 -1 1
973 98 7 -0.358962 4.150283872076616 7.265285558804449 0.8397004187165608 3 1 0
1532 154 3 0.404798 4.073934054716463 9.657657562899988 1.9688632021300108 2 3 2
943 95 7 -0.358962 7.400438798183557 0.25344984127768677 5.049122369215693 0 1 2
1533 154 7 -0.358962 2.984954273733754 9.853141251451614 1.6202815066416463 2 3 2
434 44 4 0.404798 9.961017722196335 1.0897407930192893 2.346313022478674 -2 2 2
1531 154 1 -0.091672 5.386620707304686 9.362899607044854 2.5311155405252146 2 3 2
1535 154 8 -0.358962 7.29671783803461 10.07463675976824 0.8813074113377014 2 3 2
163 17 7 -0.358962 10.135948679581931 10.077709145835124 0.5296557906062529 3 -3 -3
436 44 2 -0.091672 12.262508025327344 1.641214583761831 2.023827648167609 -2 2 2
1087 109 5 0.404798 7.895724955333484 5.355735575230349 6.672571131757615 -1 3 4
1539 154 9 -0.358962 7.840160751211927 8.794936381813333 4.868351288621273 2 3 2
1534 154 4 0.404798 6.498220010474547 9.7689188258575 1.6652320127709621 2 3 2
717 72 5 0.404798 6.688272244209665 3.91575236277337 0.22920423870947185 -4 -2 -3
715 72 8 -0.358962 3.1752937741375944 3.4912056229910324 0.3461712035211797 -4 -2 -3
688 69 6 0.404798 1.898358718824468 0.8456355860423472 7.030127718617883 1 1 3
690 69 10 -0.358962 1.2506724177817483 1.7489607900591104 6.698305359215926 1 1 3
1537 154 5 0.404798 6.780220685561534 8.907647626679484 4.410723455599212 2 3 2
1538 154 6 0.404798 4.401892990563251 8.64634306347525 4.659085079091441 2 3 2
1536 154 2 -0.091672 5.468944503005409 9.064754332030763 3.8349300222812928 2 3 2
438 44 6 0.404798 13.352372952701948 2.5072786009977923 1.659760662633099 -2 2 2
716 72 2 -0.091672 6.30240360003575 4.417505245042637 1.562635507394979 -4 -2 -3
714 72 4 0.404798 4.041317825763407 3.6987653895632873 1.0894889839176185 -4 -2 -3
300 30 10 -0.358962 1.7512008937534655 6.338575457273652 6.590374908649748 0 0 -2
1603 161 7 -0.358962 1.9410407516258645 2.1440482077731 2.0742971836253314 -2 -1 1
711 72 1 -0.091672 5.054640824479595 4.158264950822772 1.976740031173328 -4 -2 -3
65 7 8 -0.358962 3.456126579037814 3.8617203548245285 6.3832942923063145 2 -1 0
298 30 6 0.404798 1.0527154172279531 5.542421157478047 7.063509535650137 0 0 -2
168 17 6 0.404798 11.469014589259041 7.235442265555083 2.6861820006830084 3 -3 -3
713 72 7 -0.358962 4.069740669743775 5.033697504322769 4.172302830866335 -4 -2 -3
712 72 3 0.404798 4.543074163078785 4.597162827807444 3.207423088341808 -4 -2 -3
435 44 8 -0.358962 9.069249788411549 0.3946281829299463 2.60548171699805 -2 2 2
1540 154 10 -0.358962 3.42275932694499 8.410190036755036 5.234523231990996 2 3 2
162 17 3 0.404798 10.769429487007978 9.885077738130795 1.482123786884543 3 -3 -3
1086 109 2 -0.091672 8.36764490006486 6.231588651662235 7.709129507310652 -1 3 4
475 48 8 -0.358962 14.071766673310577 1.3414403373727177 5.267126735416846 2 0 -1
440 44 10 -0.358962 14.210623414828186 3.232521051033173 1.3716121720100174 -2 2 2
477 48 5 0.404798 12.440053534930462 4.333430771999618 4.157654609119693 2 0 -1
431 44 1 -0.091672 10.959846496756962 1.9298787641142277 1.899948852817606 -2 2 2
720 72 10 -0.358962 8.145329291749087 5.321663936332933 3.099924105272562 -4 -2 -3
1472 148 3 0.404798 11.316615599314995 8.728659331105543 7.302043354355946 -3 -3 -1
478 48 6 0.404798 14.01905319473381 5.60696631065912 3.0009515289333963 2 0 -1
167 17 5 0.404798 13.022677680246787 8.338901124975798 4.147721555565913 3 -3 -3
64 7 4 0.404798 3.8166204403784136 4.363402832675812 7.365108367151104 2 -1 0
718 72 6 0.404798 7.304731806155294 4.871885199519555 2.4390951045853924 -4 -2 -3
161 17 1 -0.091672 11.606776017415651 9.653739931030035 2.649510725242766 3 -3 -3
1089 109 9 -0.358962 7.608669888455802 4.567000680874091 5.871885976031968 -1 3 4
479 48 9 -0.358962 11.328457234054856 4.163411954031217 4.442342629301804 2 0 -1
480 48 10 -0.358962 14.418437077014513 6.510838651221784 2.393409444191088 2 0 -1
476 48 2 -0.091672 13.74752418033696 4.43413268677719 3.712607132701922 2 0 -1
169 17 9 -0.358962 13.858725210286147 8.166533438764407 4.93316026863207 3 -3 -3
1473 148 7 -0.358962 11.273115389828211 7.573623473243449 7.204064204062085 -3 -3 -1
471 48 1 -0.091672 14.670926458800249 3.4987745907419683 3.973439401472842 2 0 -1
432 44 3 0.404798 10.467936262588687 3.133671174092635 1.2714811406016926 -2 2 2
166 17 2 -0.091672 12.028933158516955 8.472575036138991 3.1209265149578043 3 -3 -3
474 48 4 0.404798 14.36255522814454 2.326799614965959 4.728508945295164 2 0 -1
1478 148 6 0.404798 13.634641788171626 10.258069626359402 6.921320966197611 -3 -3 -1
437 44 5 0.404798 12.662556957269738 0.4163361898766388 2.5893023134376207 -2 2 2
170 17 10 -0.358962 11.021118356834915 6.2019726758299205 2.4088201688188318 3 -3 -3
1480 148 10 -0.358962 14.703276147054714 9.815003270239776 6.835805683178058 -3 -3 -1
695 70 8 -0.358962 3.8176975671953426 0.3672199993855566 1.5464104587832628 4 0 4
433 44 7 -0.358962 10.02133350676136 4.085532670559442 0.781475344026494 -2 2 2
1471 148 1 -0.091672 11.191313815832522 10.138463100890656 7.36116574881602 -3 -3 -1
1610 161 10 -0.358962 0.3082401748658241 5.3927160602487065 4.31254804353683 -2 -1 1
754 76 4 0.404798 13.739087368991724 3.8420342374381367 7.553007488040724 0 3 0
694 70 4 0.404798 3.2908610148754818 0.303971916922742 0.514885892539877 4 0 4
296 30 2 -0.091672 0.10761571456874505 4.611479441382551 7.626991710908227 0 0 -2
755 76 8 -0.358962 12.987817595934766 3.0381239511331652 7.185690182745397 0 3 0
710 71 10 -0.358962 11.299008871080304 0.01363743445816561 0.07014185641967757 -2 1 -1
70 7 10 -0.358962 5.5810156177125165 5.612673243028843 11.698498961396831 2 -1 0
1386 139 2 -0.091672 1.9423990219915022 6.54154426017982 13.67445285329211 -2 3 3
1387 139 5 0.404798 2.1143880361653475 7.6833643274733 12.888834387435772 -2 3 3
6 1 2 -0.091672 5.887724037801539 2.579314731359691 12.998962360479076 1 0 -2
68 7 6 0.404798 5.508678759762859 5.112249624636637 10.654495319381956 2 -1 0
1144 115 4 0.404798 6.392965336635342 8.57921587492114 12.246593713680253 -2 1 -1
66 7 2 -0.091672 5.246806168431506 4.548351886340345 9.317636236490443 2 -1 0
1 1 1 -0.091672 7.2119877278212705 2.6700879135315714 13.182499779558139 1 0 -2
61 7 1 -0.091672 4.157012266154735 4.949053446645566 8.64876591226067 2 -1 0
63 7 7 -0.358962 2.7304793297448477 6.668854725677022 9.924273943733569 2 -1 0
62 7 3 0.404798 3.353893373592998 5.898773813864002 9.321007567633112 2 -1 0
1088 109 6 0.404798 7.642828081366551 7.444728901774577 7.884844754194475 -1 3 4
1145 115 8 -0.358962 5.275384113207795 8.331619688313614 12.43449885879305 -2 1 -1
1389 139 9 -0.358962 2.2168862626998136 8.621056392235776 12.213684242690267 -2 3 3
297 30 5 0.404798 0.6407526322910185 3.806654783489147 8.64679123039658 0 0 -2
1382 139 3 0.404798 1.1004489283644177 4.407566153570216 14.373662344872066 -2 3 3
400 40 10 -0.358962 2.1404735810419506 1.4028547411725165 12.640557389333242 3 1 3
2 1 3 0.404798 7.785747177354522 3.0638945917344054 14.424263055527243 1 0 -2
8 1 6 0.404798 4.948238179817596 2.8751082324075847 14.076405097960055 1 0 -2
398 40 6 0.404798 2.2982182410079703 0.2659751064853042 12.808549742502164 3 1 3
1150 115 10 -0.358962 10.846200134448566 9.703168177080324 10.594399426976434 -2 1 -1
1381 139 1 -0.091672 1.1687258201849269 5.475020004923433 13.430412273497904 -2 3 3
569 57 9 -0.358962 3.6938298850756675 9.220967589429486 8.29996540603709 2 -1 2
299 30 9 -0.358962 0.8775036261115049 3.130470578225232 9.559109101116295 0 0 -2
7 1 5 0.404798 5.228258423901172 2.3692161581197952 11.727374863045647 1 0 -2
1384 139 4 0.404798 0.3327656031634959 5.283695577122933 12.268541211830762 -2 3 3
9 1 9 -0.358962 4.676077694082679 2.0460045837299417 10.759784683018715 1 0 -2
567 57 5 0.404798 3.1977741830576196 10.212583240097286 7.959044194725685 2 -1 2
138 14 6 0.404798 11.237074831077583 0.11948156392119678 14.563047721579622 1 -3 -1
1148 115 6 0.404798 9.715298405921528 9.62530450539728 10.84056715560903 -2 1 -1
751 76 1 -0.091672 14.648065863719866 4.894645034465206 7.864714926182225 0 3 0
3 1 7 -0.358962 8.27878383321489 3.5569262805204933 15.35132002118785 1 0 -2
1352 136 3 0.404798 14.626940609186844 1.7966299366701288 15.439497090085629 0 1 0
1085 109 8 -0.358962 10.351685911462333 3.398920035529645 8.180396302791 -1 3 4
1388 139 6 0.404798 2.5905559060275944 6.6187100989771706 14.87699287785019 -2 3 3
1084 109 4 0.404798 9.861152214219182 4.448228340523057 8.243076483563478 -1 3 4
69 7 9 -0.358962 6.867097542005571 2.8628197738246772 8.2554134213661 2 -1 0
1143 115 7 -0.358962 9.372440659969511 7.2615158883256665 13.357810375917119 -2 1 -1
1351 136 1 -0.091672 15.240667514944475 2.2884990385730353 14.275820942211652 0 1 0
1356 136 2 -0.091672 15.003046596823014 1.7134220352142389 13.089051008864889 0 1 0
4 1 4 0.404798 8.107855080813238 2.20046700633642 12.191893679149366 1 0 -2
5 1 8 -0.358962 8.873997008759467 1.8544814394723752 11.392568622810836 1 0 -2
1147 115 5 0.404798 7.420015677193333 10.422856680493956 10.192226740012858 -2 1 -1
1082 109 3 0.404798 9.812441573526918 6.357260320757685 9.605397800557105 -1 3 4
67 7 5 0.404798 6.096461546115844 3.6077382304962775 8.699053678270184 2 -1 0
1452 146 3 0.404798 14.37382691144887 7.988013755767098 13.92381568666093 -1 -3 0
1358 136 6 0.404798 14.092869949516317 0.6374332812009262 12.869753754966457 0 1 0
420 42 10 -0.358962 11.858037573417722 4.170112540490668 13.58588942500826 3 0 1
1083 109 7 -0.358962 10.120897884166556 6.787012723320895 10.63775802086964 -1 3 4
1081 109 1 -0.091672 9.360824798573168 5.754423470204382 8.471695629267307 -1 3 4
1357 136 5 0.404798 15.512150713965305 2.3016608267835728 11.8650823719238 0 1 0
1090 109 10 -0.358962 6.87442072184728 8.302652571789285 8.0231094374174 -1 3 4
1142 115 3 0.404798 8.710705985748687 7.941670387874053 12.690654403132406 -2 1 -1
1146 115 2 -0.091672 8.247065979290356 9.593798617875803 11.046986730846095 -2 1 -1
1453 146 7 -0.358962 13.230936377027174 8.183092975996288 13.960494955060817 -1 -3 0
140 14 10 -0.358962 11.512465806658966 1.1827768639426368 14.190002211173603 1 -3 -1
418 42 6 0.404798 11.512311658760009 3.96566660286834 14.674133630968004 3 0 1
1141 115 1 -0.091672 7.79046199891369 8.748737816558739 11.98132343983 -2 1 -1
1383 139 7 -0.358962 1.0733200336708035 3.488359556747714 15.080714873435623 -2 3 3
10 1 10 -0.358962 4.149658599256259 3.0481808733898355 14.899761958382108 1 0 -2
752 76 3 0.404798 14.108191802194312 6.20839469977436 7.9619438653600305 0 3 0
753 76 7 -0.358962 13.650790060429472 7.259537942269726 8.139374467528729 0 3 0
1591 160 1 -0.091672 2.142875223172247 7.407114439402737 21.043336057350324 2 3 0
1597 160 5 0.404798 1.1133559450363073 7.942690376897543 18.91020700816074 2 3 0
424 43 4 0.404798 2.1172504717396223 1.3978414349178736 22.433679770055708 -2 6 -1
1595 160 8 -0.358962 3.273851438965266 5.2483423856675335 20.234637197232082 2 3 0
425 43 8 -0.358962 2.732881540842603 1.7807182798582315 21.528139201717558 -2 6 -1
1594 160 4 0.404798 2.777413090708083 6.226721395291155 20.611364548479983 2 3 0
1592 160 3 0.404798 2.057788173841745 7.524926416413417 22.457063528655393 2 3 0
1596 160 2 -0.091672 1.40605338110053 8.1996369824655 20.25301861351485 2 3 0
1031 104 1 -0.091672 1.9369645331355851 2.2876526618324995 17.000578423095632 0 -1 -3
1193 120 7 -0.358962 13.641986951443064 10.225433108626445 22.22571715823641 1 -1 1
1038 104 6 0.404798 1.3385116742166339 3.9627569625855656 18.576459757508655 0 -1 -3
1039 104 9 -0.358962 4.757552704615844 4.072650006214309 17.959005595826035 0 -1 -3
1486 149 2 -0.091672 7.579789353841601 6.998222622784118 19.0151284201844 -1 -2 -4
1519 152 9 -0.358962 6.371596888239888 2.9471554830809215 21.28028873574285 1 2 3
1036 104 2 -0.091672 2.3334545068532995 3.261599993756823 17.831133877560617 0 -1 -3
1488 149 6 0.404798 6.738766939896022 6.139769788756939 19.793010572554394 -1 -2 -4
1490 149 10 -0.358962 6.0436253746298485 5.444434297541864 20.408548359446776 -1 -2 -4
1037 104 5 0.404798 3.6774808560963774 3.6536945662999187 17.899665916793996 0 -1 -3
1517 152 5 0.404798 7.098232879610709 3.559085219560933 21.945977961906753 1 2 3
1353 136 7 -0.358962 14.122385484161164 1.4184119439705765 16.413137319871797 0 1 0
1515 152 8 -0.358962 5.383746943370824 6.136873873411555 23.451878399332625 1 2 3
1483 149 7 -0.358962 8.672580390676599 8.057312863203286 22.111598325061934 -1 -2 -4
1040 104 10 -0.358962 0.5225402914186952 4.5936989858816455 19.107216638447355 0 -1 -3
238 24 6 0.404798 1.3285365378756488 4.867320990367867 23.115387570625014 1 0 -3
1482 149 3 0.404798 8.55044051978529 7.929820040837074 20.965113506701876 -1 -2 -4
893 90 7 -0.358962 6.778135497260664 0.6709769494787128 22.54298398940997 0 -1 -2
1034 104 4 0.404798 2.818448413066632 1.4557782691279917 16.267261815784043 0 -1 -3
1032 104 3 0.404798 0.6257910701612684 1.8344946155695745 16.980636480564243 0 -1 -3
1390 139 10 -0.358962 3.1633431590070553 6.697574429331803 15.882624622717637 -2 3 3
1394 140 4 0.404798 4.236798896580213 10.023543690441523 16.93231540946294 -1 3 -3
1598 160 6 0.404798 0.6448260772947223 9.194971167239812 20.851852767721166 2 3 0
1600 160 10 -0.358962 0.07084338863709476 10.0766831096586 21.340450707052135 2 3 0
1599 160 9 -0.358962 0.8176614666881178 7.729693793884169 17.80893622973749 2 3 0
532 54 3 0.404798 14.856223544660367 4.732274121050625 22.905508842002643 2 -2 -6
1035 104 8 -0.358962 3.5644202318185365 0.7771026364721362 15.694090423246257 0 -1 -3
1395 140 8 -0.358962 4.569856576063917 8.920570153354703 17.066933387789188 -1 3 -3
93 10 7 -0.358962 14.115067675708163 1.1299221022479895 22.887082897541237 0 -4 -4
1485 149 8 -0.358962 10.034469758757579 9.349614102497231 18.232408593799725 -1 -2 -4
1343 135 7 -0.358962 12.807640305552232 2.3002098618376823 18.764373012506486 -2 2 2
537 54 5 0.404798 11.943790497703247 7.097085051675916 22.97534020001059 2 -2 -6
175 18 8 -0.358962 13.989379211683222 9.999069162495447 16.799094102748654 -1 -1 -5
1516 152 2 -0.091672 8.069291226855958 3.99890591193139 22.874425067117706 1 2 3
1487 149 5 0.404798 7.451359196722688 7.005831549294682 17.571616279323443 -1 -2 -4
1489 149 9 -0.358962 7.612253992020274 7.07945471070649 16.425190297610683 -1 -2 -4
240 24 10 -0.358962 2.0643922372678007 4.325579092917245 22.40080230185844 1 0 -3
1481 149 1 -0.091672 8.450137658736422 7.851642895356045 19.571696186920263 -1 -2 -4
1342 135 3 0.404798 11.939767383918376 1.6147554682673104 19.11444281900482 -2 2 2
114 12 4 0.404798 14.158485417648096 7.516812703164499 18.85095585787349 -6 2 -1
1518 152 6 0.404798 9.39288163609308 3.431249969386998 22.792964471805725 1 2 3
111 12 1 -0.091672 15.517300124120851 6.993675514267488 18.785112970379664 -6 2 -1
535 54 8 -0.358962 12.317109837606981 3.9248415642090784 20.79162907160113 2 -2 -6
419 42 9 -0.358962 9.943041971030159 1.7439504399161583 16.755460698796295 3 0 1
417 42 5 0.404798 10.496821946306644 2.6859403311088297 16.36612429159481 3 0 1
539 54 9 -0.358962 10.953620767594952 7.654331887377807 22.741588392282846 2 -2 -6
534 54 4 0.404798 12.936096752739898 4.545936335235559 21.55103442891885 2 -2 -6
1345 135 8 -0.358962 8.498264052669883 1.2314169695743615 19.789221312128255 -2 2 2
1520 152 10 -0.358962 10.495931482877317 3.073596137066475 22.76190362288635 1 2 3
416 42 2 -0.091672 11.058481703027196 3.901817417687307 16.007024721360303 3 0 1
412 42 3 0.404798 11.579716350408447 6.190192885938059 16.53946832769203 3 0 1
413 42 7 -0.358962 11.909886508428295 7.24474065901269 16.186599095730127 3 0 1
531 54 1 -0.091672 13.609532490068949 5.245241527321315 22.563412893646618 2 -2 -6
1344 135 4 0.404798 9.604406510643 0.9153034516549106 19.64048942491524 -2 2 2
536 54 2 -0.091672 13.18853919058935 6.320201321475573 23.243726160376923 2 -2 -6
115 12 8 -0.358962 13.096463638416472 7.982909162027845 18.872493797326516 -6 2 -1
415 42 8 -0.358962 10.204503861488028 4.688986405190489 19.314598834824526 3 0 1
411 42 1 -0.091672 11.137922019298461 4.866539162015007 16.93363208913846 3 0 1
414 42 4 0.404798 10.615844644224259 4.705447737952967 18.230104576953412 3 0 1
113 12 7 -0.358962 15.575340427505541 4.57939360205274 17.934013552148812 -6 2 -1
1484 149 4 0.404798 9.309380495039079 8.643805792094183 18.799577224036472 -1 -2 -4
1341 135 1 -0.091672 11.004809084663018 0.5175846893368139 19.450853966531067 -2 2 2
112 12 3 0.404798 15.516031091521723 5.681682874585746 18.290441367438522 -6 2 -1
1593 160 7 -0.358962 2.099922180689924 7.7431389546617195 23.595574844677692 2 3 0
897 90 5 0.404798 5.641391551887255 1.7139525356942265 27.16877833283082 0 -1 -2
980 98 10 -0.358962 2.7704280509456387 5.289178059897273 28.77339666376552 3 1 -1
978 98 6 0.404798 3.7710160116341007 5.8704485565933 28.85431876797881 3 1 -1
979 98 9 -0.358962 6.086200781645746 6.776647481493921 26.477566551900765 3 1 -1
977 98 5 0.404798 5.551806523959277 6.706792813736062 27.504768173433927 3 1 -1
976 98 2 -0.091672 4.946939929424347 6.6950684594267065 28.768512816153258 3 1 -1
691 70 1 -0.091672 2.614505057684932 0.25959251692877716 30.538581684361755 4 0 3
898 90 6 0.404798 5.1492353927928 2.5834331511028545 24.971432588040607 0 -1 -2
896 90 2 -0.091672 5.855718950601567 1.6234218559034952 25.739198705720565 0 -1 -2
899 90 9 -0.358962 5.480416137473891 1.8111760438359283 28.31343309257279 0 -1 -2
818 82 6 0.404798 2.7482977157713613 9.394286706466174 27.900241051445896 -2 7 1
1512 152 3 0.404798 8.608461809207505 5.38875582259735 24.675669236675454 1 2 3
1590 159 10 -0.358962 12.42408494681071 0.2608986070304285 28.201559581806887 1 -1 -2
820 82 10 -0.358962 2.816556172990469 8.24246681444696 27.780860414887627 -2 7 1
1236 124 2 -0.091672 11.517089362007505 6.25987883125141 28.567080946331647 0 1 -2
236 24 2 -0.091672 0.32249457197936005 5.417480764245358 23.97292542674468 1 0 -3
692 70 3 0.404798 2.537990613655376 1.5564736512086024 29.93619237381089 4 0 3
971 98 1 -0.091672 5.42836978118508 7.29761922608984 29.86430380798751 3 1 -1
693 70 7 -0.358962 2.467010331493636 2.575361760691742 29.386257082812346 4 0 3
422 43 3 0.404798 2.1190964164024044 0.27785780695691714 24.562937502630188 -2 6 -1
719 72 9 -0.358962 6.98104045475012 3.6454010268089423 30.442802134043745 -4 -2 -4
1589 159 9 -0.358962 9.046261300153505 1.3741758260184043 30.695867446231496 1 -1 -2
892 90 3 0.404798 6.662132258679891 0.7284131945644465 23.695739094883006 0 -1 -2
673 68 7 -0.358962 14.472602635293358 6.772742413771304 28.623698434909265 2 0 0
672 68 3 0.404798 15.350101212562791 6.539425517232887 29.34561222821168 2 0 0
972 98 3 0.404798 4.709071696270897 7.314052167256524 31.127329534905694 3 1 -1
974 98 4 0.404798 6.58094584043294 8.074683731122526 29.73804166003402 3 1 -1
975 98 8 -0.358962 7.534745951052058 8.713351914405951 29.570804393803144 3 1 -1
900 90 10 -0.358962 4.469760056298105 3.371064711273027 24.458061572377318 0 -1 -2
1513 152 7 -0.358962 9.43990046912574 5.727653882003867 25.41014721554688 1 2 3
1200 120 10 -0.358962 10.365403177101348 10.024432700760128 24.22963353882586 1 -1 1
1587 159 5 0.404798 9.582462489124522 1.6087734855523876 29.69434248624104 1 -1 -2
92 10 3 0.404798 14.850805388198744 0.6428169804012496 23.6400892938049 0 -4 -4
540 54 10 -0.358962 14.832486168295041 7.624356099889372 24.76812185790242 2 -2 -6
1235 124 8 -0.358962 9.516777665655116 7.370504378538337 31.18774109122277 0 1 -2
891 90 1 -0.091672 6.543383354226315 0.6754796463559506 25.087951130264425 0 -1 -2
1581 159 1 -0.091672 10.061912413398664 2.7349341434589594 27.704998977528835 1 -1 -2
1585 159 8 -0.358962 7.7398197229052 3.8467072532016426 27.92027175247911 1 -1 -2
1234 124 4 0.404798 9.96796431253665 7.292029387043306 30.12196799579893 0 1 -2
538 54 6 0.404798 14.098541764304569 7.0564174421875325 24.07215393118177 2 -2 -6
1583 159 7 -0.358962 11.45750170759872 3.4376366221553383 25.66978588056606 1 -1 -2
1586 159 2 -0.091672 10.302688542575392 1.7149503499448722 28.540019887096687 1 -1 -2
1233 124 7 -0.358962 9.326778621113865 8.589403869052994 27.09887758589734 0 1 -2
1584 159 4 0.404798 8.778881744558184 3.335443599580911 27.85274686355372 1 -1 -2
239 24 9 -0.358962 0.5406748798963649 5.19175286646993 26.504805623600337 1 0 -3
1232 124 3 0.404798 9.886718368653773 7.912717684089775 27.856613223633325 0 1 -2
1582 159 3 0.404798 10.844259394092942 3.0393259472424683 26.570276012652094 1 -1 -2
1588 159 6 0.404798 11.502595137270996 0.9351821618757575 28.40600586036626 1 -1 -2
237 24 5 0.404798 0.39199462141218705 5.320642021138032 25.361616315596923 1 0 -3
1240 124 10 -0.358962 12.203010222211155 5.9074814101629665 26.154391313043664 0 1 -2
1231 124 1 -0.091672 10.505716971976778 7.096656921275163 28.83639190806896 0 1 -2
1238 124 6 0.404798 11.897500750671956 5.940728335361358 27.272943335094837 0 1 -2
1237 124 5 0.404798 12.169994329339149 5.432644563196787 29.53669552310687 0 1 -2
1239 124 9 -0.358962 12.64374690477368 4.67971713587579 30.281181111483164 0 1 -2
650 65 10 -0.358962 13.730871414403559 10.216846670737656 27.508377847988584 1 3 -2
426 43 2 -0.091672 0.11493914327184211 1.0554612460512012 23.52152387273664 -2 6 -1
1514 152 4 0.404798 6.421737668779802 5.637051344387551 23.587350528484365 1 2 3
1511 152 1 -0.091672 7.698089972547311 4.977984026555776 23.710616266296483 1 2 3
421 43 1 -0.091672 1.4468006789801418 0.9097722886324111 23.498729348149958 -2 6 -1
562 57 3 0.404798 2.2772791047680983 13.671173644128967 6.617696010624303 2 -1 2
866 87 2 -0.091672 1.8360507766281173 18.24089257080488 4.265534421914452 0 -4 6
549 55 9 -0.358962 6.815122118417651 20.522550534775526 0.32108366125294724 1 -1 3
861 87 1 -0.091672 1.8269300370527481 18.719614605857608 5.5170703057985975 0 -4 6
864 87 4 0.404798 3.0883374737919835 19.19712801832132 6.028531273692193 0 -4 6
1006 101 2 -0.091672 4.528945686116358 14.820004841625458 3.6169991965676584 -2 -3 2
1008 101 6 0.404798 3.303889664964862 15.387959830873593 3.081006331710563 -2 -3 2
1010 101 10 -0.358962 2.291604109332081 15.779395383811812 2.671547940156259 -2 -3 2
1001 101 1 -0.091672 5.192720107497649 13.81386799495953 3.0316000002945147 -2 -3 2
1007 101 5 0.404798 5.07726552529402 15.625402536251478 4.680948396960899 -2 -3 2
1004 101 4 0.404798 6.498094391218313 13.361511380814388 3.533135701338274 -2 -3 2
1002 101 3 0.404798 4.5895402473258615 13.148860375792665 1.8919887804713162 -2 -3 2
1003 101 7 -0.358962 4.11234413812106 12.658171169606971 0.9554483470147618 -2 -3 2
868 87 6 0.404798 0.6558943091994521 17.593615762965882 3.6827266569064823 0 -4 6
867 87 5 0.404798 2.96910258622381 18.141951489673207 3.454438322398463 0 -4 6
1470 147 10 -0.358962 0.932872128459183 13.721302569146456 0.44964502374820586 -3 -3 1
1339 134 9 -0.358962 2.7243519415237243 19.87090909979124 0.13202061462647138 2 1 -4
550 55 10 -0.358962 6.475030899729999 16.58612329999225 2.485922904140267 1 -1 3
1005 101 8 -0.358962 7.534926272030522 12.9665190034624 3.8716038361265652 -2 -3 2
250 25 10 -0.358962 13.087037097013004 16.056250157712682 5.669156860843907 1 0 -2
865 87 8 -0.358962 4.132385308892698 19.512299509733037 6.423792092481485 0 -4 6
1275 128 8 -0.358962 1.801727487161426 12.517822970978441 2.782002290879447 -3 0 6
32 4 3 0.404798 12.6262419412338 15.891189910425815 1.5065998374514689 3 2 -3
1009 101 9 -0.358962 5.6460494388556715 16.19275777433958 5.517723730362881 -2 -3 2
548 55 6 0.404798 6.994844628706327 17.21557584468796 1.6617971913742395 1 -1 3
563 57 7 -0.358962 1.946378822955869 14.755429008042558 6.371738044245887 2 -1 2
546 55 2 -0.091672 7.5883995155727835 18.068469957665098 0.6920040136587118 1 -1 3
951 96 1 -0.091672 9.788920627129846 19.75837978558166 3.7767660127253375 -1 2 -1
958 96 6 0.404798 11.04187614272642 19.40682927752277 5.728579181578119 -1 2 -1
242 25 3 0.404798 9.864039731417211 14.708857714755018 4.361149417222756 1 0 -2
956 96 2 -0.091672 10.781083533783688 20.169627218211915 4.5780701509215485 -1 2 -1
248 25 6 0.404798 12.062218605125487 15.724806451072178 6.099844869194121 1 0 -2
35 4 8 -0.358962 14.93009537913344 13.701986408987608 2.8376538152157225 3 2 -3
529 53 9 -0.358962 15.515620167771473 11.184044445353976 1.7795710020792068 4 -2 2
1274 128 4 0.404798 0.8327659558196965 12.142707518175827 3.2977560738688467 -3 0 6
164 17 4 0.404798 12.139316873964209 10.795594678878476 3.2516080252979918 3 -3 -3
241 25 1 -0.091672 9.729214336250232 14.848536903492072 5.778447302412721 1 0 -2
547 55 5 0.404798 7.186288536998779 19.440773309842346 0.5149742418746228 1 -1 3
954 96 4 0.404798 9.344309452793059 20.568313914951457 2.662243992065202 -1 2 -1
245 25 8 -0.358962 7.515471058432555 13.999471815877712 6.841364409902912 1 0 -2
1477 148 5 0.404798 12.352597574819983 12.305175152652582 7.5316522612844485 -3 -3 -1
543 55 7 -0.358962 9.520527140560036 15.234898953702531 0.4739321506761068 1 -1 3
27 3 5 0.404798 8.199201440679397 17.81326913995535 7.801423032587057 4 -1 -1
952 96 3 0.404798 8.998137925677742 18.641391602027188 4.026622465104243 -1 2 -1
797 80 5 0.404798 14.910042174462019 20.38772018196588 3.0941185318377644 0 3 0
244 25 4 0.404798 8.50565549824307 14.363915341730605 6.359372994813207 1 0 -2
243 25 7 -0.358962 10.125221856874493 14.631978868106883 3.2335530586436034 1 0 -2
34 4 4 0.404798 14.36668615530301 14.269930257839967 1.9976479382830041 3 2 -3
31 4 1 -0.091672 13.551421917112759 14.850517811039412 1.0527408726076257 3 2 -3
24 3 4 0.404798 8.150248373709584 20.310797394020888 6.523861623977156 4 -1 -1
165 17 8 -0.358962 12.639683548205086 11.745883989970622 3.6899953375879493 3 -3 -3
33 4 7 -0.358962 11.950821150406904 16.766195122703962 1.858413274744078 3 2 -3
862 87 3 0.404798 0.6929377295273514 18.67942809362416 6.34121268125275 0 -4 6
953 96 7 -0.358962 8.378229390690768 17.67647685598111 4.200556245096901 -1 2 -1
960 96 10 -0.358962 11.129306420230238 18.869713982798004 6.753012260337786 -1 2 -1
246 25 2 -0.091672 10.73130469509616 15.265269637306032 6.564417239421003 1 0 -2
869 87 9 -0.358962 3.9101987950115165 18.06565690237644 2.7805562256424894 0 -4 6
795 80 8 -0.358962 12.12539065987308 20.223670371197848 0.9057552419379229 0 3 0
542 55 3 0.404798 9.121215875769964 16.30724109989477 0.2835827974729009 1 -1 3
564 57 4 0.404798 4.114705110331943 12.136482688438049 6.313092536455544 2 -1 2
565 57 8 -0.358962 5.1569332009118405 11.986185298011055 5.826501019856512 2 -1 2
1476 148 2 -0.091672 12.308301292838859 10.86194163397641 7.204584128532829 -3 -3 -1
799 80 9 -0.358962 15.081371888583696 19.286046765949223 3.4143713848182253 0 3 0
1479 148 9 -0.358962 12.380744699671096 13.457392632113743 7.662811229664371 -3 -3 -1
229 23 9 -0.358962 6.5980423730807685 13.65508639086048 0.4033665174234528 -2 3 -2
561 57 1 -0.091672 2.8141245334991574 12.327053991713129 6.8952385891204155 2 -1 2
29 3 9 -0.358962 7.894468221889945 16.84846543993898 7.2340682156932425 4 -1 -1
25 3 8 -0.358962 7.749023836623876 20.453779810413604 5.4448922512288105 4 -1 -1
566 57 2 -0.091672 2.4313368190073774 11.414770005591906 7.799014854723201 2 -1 2
541 55 1 -0.091672 8.66723300213966 17.65696912418275 0.012014752434558205 1 -1 3
21 3 1 -0.091672 8.60054840363967 20.196680485203004 7.807683580170591 4 -1 -1
1558 156 6 0.404798 1.7095915956086594 11.778366334060568 13.611162448263133 1 2 0
1555 156 8 -0.358962 2.706631578333089 13.808142593407464 9.39925355821428 1 2 0
742 75 3 0.404798 6.192692065361701 17.612092416453184 10.22425152943327 2 0 1
743 75 7 -0.358962 7.187492889479421 17.02272294477159 10.131434793528847 2 0 1
1554 156 4 0.404798 2.3047584253925444 13.610405367836282 10.469299333078286 1 2 0
741 75 1 -0.091672 4.988523391480573 18.37248170280813 10.398975550371008 2 0 1
1556 156 2 -0.091672 2.21713120363504 12.203212222401554 12.37879142733591 1 2 0
744 75 4 0.404798 3.771695651191959 17.55607110352164 10.278861502086702 2 0 1
747 75 5 0.404798 3.7353453780348027 20.241134787010072 11.272295289791927 2 0 1
746 75 2 -0.091672 4.947909870444808 19.61821560212518 10.891009690788207 2 0 1
1557 156 5 0.404798 3.2342249237771936 11.36417570469803 11.797417457082158 1 2 0
1559 156 9 -0.358962 4.018969579579222 10.668533565475855 11.301576918588896 1 2 0
1551 156 1 -0.091672 1.7513667233332122 13.277260078062655 11.726806240252955 1 2 0
1399 140 9 -0.358962 5.771322994732933 11.559085423599532 13.961943022924851 -1 3 -3
194 20 4 0.404798 2.03868317140682 17.206930130363382 13.574272737021072 0 4 -1
1552 156 3 0.404798 0.6410254453641698 14.031101319111459 12.206298132338047 1 2 0
195 20 8 -0.358962 3.145046084600494 17.32087736342503 13.24476228146502 0 4 -1
350 35 10 -0.358962 6.615882006579619 19.330907897053425 14.225830661344029 5 -1 -1
568 57 6 0.404798 1.336792400306177 11.619675092559635 8.723662433741744 2 -1 2
570 57 10 -0.358962 0.46074036036772903 11.779416384151249 9.46704360542181 2 -1 2
745 75 8 -0.358962 2.747868074064011 17.052572345098987 10.069418741771893 2 0 1
748 75 6 0.404798 6.145438506562122 20.437753672414026 10.975820055231862 2 0 1
343 35 7 -0.358962 2.757016775833027 20.675198526053762 14.364994227669188 5 -1 -1
1149 115 9 -0.358962 6.669197116548297 10.978928779496783 9.50472742152175 -2 1 -1