LAMMPS data file via write_data, version 29 Sep 2021, timestep = 5000000

1620 atoms
10 atom types
1458 bonds
9 bond types
1620 angles
10 angle types
1944 dihedrals
12 dihedral types

0 31.303 xlo xhi
0 31.303 ylo yhi
0 31.303 zlo zhi

Masses

1 12.01
2 12.01
3 12.01
4 12.01
5 12.01
6 12.01
7 14.01
8 14.01
9 14.01
10 14.01

Bond Coeffs # harmonic

1 400 1.426
2 400 1.426
3 400 1.426
4 400 1.426
5 549 1.34
6 650 1.16
7 650 1.16
8 650 1.16
9 650 1.16

Angle Coeffs # harmonic

1 70 116.8
2 70 116.8
3 70 121.6
4 70 121.6
5 70 121.6
6 70 121.6
7 70 178.9
8 70 178.9
9 70 178.9
10 70 178.9

Dihedral Coeffs # opls

1 0 0 0 0
2 0 0 0 0
3 0 0 0 0
4 0 0 0 0
5 0 0 0 0
6 0 0 0 0
7 0 0 0 0
8 0 0 0 0
9 0 14 0 0
10 0 14 0 0
11 0 14 0 0
12 0 14 0 0

Atoms # full

332 34 3 0.404798 1.2814071274065182 7.969400989981909 4.831350627931206 2 1 -1
331 34 1 -0.091672 2.0672513515005284 7.702528389283223 3.6852358041456124 2 1 -1
336 34 2 -0.091672 1.8982230760204883 6.653499166848722 2.8688001802364305 2 1 -1
334 34 4 0.404798 3.149645302372119 8.61620776353677 3.398283005178911 2 1 -1
335 34 8 -0.358962 3.8585069849072484 9.47195966355156 3.065410988436701 2 1 -1
319 32 9 -0.358962 6.669498067887187 4.692903528861779 4.069519643969533 2 0 -2
452 46 3 0.404798 5.389101501105807 2.6122962912759653 2.2792750023010298 2 0 0
588 59 6 0.404798 0.5832838461099957 3.737313730190431 7.035554312561321 0 0 -2
333 34 7 -0.358962 0.5847140737548813 8.15344539634667 5.740386598129896 2 1 -1
458 46 6 0.404798 3.971321065087937 2.7052196328548708 4.507325709788499 2 0 0
337 34 5 0.404798 2.6213680608851653 6.579860905854534 1.591205165274333 2 1 -1
339 34 9 -0.358962 3.133400302457784 6.399350223110338 0.5661008421994167 2 1 -1
317 32 5 0.404798 6.887292931071314 5.763052988793243 3.6784371989616758 2 0 -2
193 20 7 -0.358962 8.603670446833785 4.681443090211628 7.6709422228470885 -1 3 1
587 59 5 0.404798 0.5699686084684711 2.0779679206769295 5.278857987957447 0 0 -2
460 46 10 -0.358962 3.1948255761149245 3.5655903267582305 4.5564889254340235 2 0 0
589 59 9 -0.358962 1.073874818933916 1.716729461122318 4.2984574132649405 0 0 -2
316 32 2 -0.091672 7.108661705083545 7.033434960873298 3.1243554016863264 2 0 -2
456 46 2 -0.091672 4.976262058208707 1.6918714876881629 4.355490061862611 2 0 0
457 46 5 0.404798 5.090978008042021 0.8330971373645403 5.429306481618178 2 0 0
453 46 7 -0.358962 5.202874924307858 3.3224230496584233 1.3811438135413974 2 0 0
295 30 8 -0.358962 1.4127109852525812 9.322866631061531 0.12562018047537937 -2 0 0
1289 129 9 -0.358962 4.758567186718939 6.93466079913565 5.575143094803445 0 1 1
1305 131 8 -0.358962 6.201066446289724 10.223582267460078 5.70194534620956 0 0 -3
1287 129 5 0.404798 4.640598865790919 6.359339305886381 6.575487349389964 0 1 1
990 99 10 -0.358962 8.229724876700644 1.165999772070186 6.6869784364555676 0 0 -2
1430 143 10 -0.358962 3.3764312038984947 0.2777757000122458 1.0879899771882162 -2 2 1
451 46 1 -0.091672 5.644144504908409 1.6176113887607473 3.196172010818393 2 0 0
315 32 8 -0.358962 8.297111878605598 7.781609031932425 6.433545644802937 2 0 -2
338 34 6 0.404798 0.8592074411535958 5.712998843341957 3.090013069743483 2 1 -1
454 46 4 0.404798 6.761409964828984 0.7341823887179204 2.8904706841080197 2 0 0
1505 151 8 -0.358962 1.1602478066510868 2.4281946124490124 0.5312993223986799 2 -2 2
590 59 10 -0.358962 1.06410828431936 4.747744969803667 7.341228026595465 0 0 -2
90 9 10 -0.358962 14.697628025351543 4.088496325352911 3.673191873622616 1 -2 -1
488 49 6 0.404798 12.028038170605482 7.67386214208036 2.729001703713224 0 -1 0
311 32 1 -0.091672 7.6141477822804235 7.997640712723563 3.9056306433730796 2 0 -2
314 32 4 0.404798 8.047052571221531 7.830151820535971 5.3018593326445735 2 0 -2
318 32 6 0.404798 6.508217017994291 7.348078691767635 1.8555515032832237 2 0 -2
484 49 4 0.404798 15.28190888754591 9.223497571062346 1.794052174898558 0 -1 0
320 32 10 -0.358962 6.12438551001977 7.488629778868347 0.769955470263312 2 0 -2
1233 124 7 -0.358962 15.486389330257822 4.24872933224898 6.8982773274880325 1 2 -2
312 32 3 0.404798 7.700494418096005 9.2383281496999 3.2365020745885573 2 0 -2
195 20 8 -0.358962 12.2045027097634 2.455859779624344 6.928328643784994 -1 3 1
1609 161 9 -0.358962 9.640835423531342 8.125316341425187 0.5085309638585874 1 0 0
1 1 1 -0.091672 11.441228492873714 2.386445643485488 2.8441754516915436 2 3 1
8 1 6 0.404798 10.689477268900234 3.907669020297657 1.2412361301339234 2 3 1
619 62 9 -0.358962 12.23559503913084 5.6658457355610095 6.129735297829248 1 0 2
490 49 10 -0.358962 11.017865382081009 7.108176414838719 2.800769074876788 0 -1 0
6 1 2 -0.091672 11.590128370045354 2.961883661394096 1.6432175516243996 2 3 1
3 1 7 -0.358962 9.590030737273745 3.1761219359495967 4.501009807009654 2 3 1
7 1 5 0.404798 12.665183353504128 2.6217112617957232 0.7570677705558764 2 3 1
2 1 3 0.404798 10.415794868900651 2.8459572067525727 3.7562247116977305 2 3 1
615 62 8 -0.358962 12.136217011195177 9.681649632194585 7.2165193792404 1 0 2
617 62 5 0.404798 12.428914003527987 5.927191844928835 7.243254925494183 1 0 2
5 1 8 -0.358962 13.2382263989657 0.6996722327195116 3.5432980222681834 2 3 1
482 49 3 0.404798 13.296179054284242 8.810697356028856 0.45176069697351484 0 -1 0
486 49 2 -0.091672 13.284226334355235 8.329594119641424 2.803739986112453 0 -1 0
489 49 9 -0.358962 14.486614604594578 7.950134384567867 5.031391872294117 0 -1 0
4 1 4 0.404798 12.442972706911718 1.4945931704150754 3.2582151674710373 2 3 1
481 49 1 -0.091672 13.897452866020302 8.867691409048849 1.7407232926577594 0 -1 0
10 1 10 -0.358962 9.92854291587213 4.7711050124645675 1.0961252263117942 2 3 1
487 49 5 0.404798 13.970442883522951 8.109311661130171 4.004829975085595 0 -1 0
9 1 9 -0.358962 13.547155995733037 2.348200803024823 0.05498781941032034 2 3 1
313 32 7 -0.358962 7.761572366972839 10.28633424882758 2.7429915153278133 2 0 -2
194 20 4 0.404798 11.391977832444798 2.7434279518574445 7.70467120183432 -1 3 1
340 34 10 -0.358962 0.05732004372076185 4.9079414474068015 3.323377946009934 2 1 -1
459 46 9 -0.358962 5.242197382050427 0.14420780469134975 6.350264776379569 2 0 0
988 99 6 0.404798 8.322527753716018 0.3811567249881389 7.536100923684467 0 0 -2
455 46 8 -0.358962 7.7298860259222435 0.1509768305020695 2.6306143126187047 2 0 0
1288 129 6 0.404798 3.790651121459452 4.452985967532136 7.781833696210467 0 1 1
1286 129 2 -0.091672 4.359204240518497 5.746474878177129 7.819173314443582 0 1 1
1230 123 10 -0.358962 15.511125741551792 8.535675352729317 7.787089877939997 -3 2 2
796 80 2 -0.091672 5.221728593224644 2.5764270085436163 11.771161961397917 1 -1 -1
791 80 1 -0.091672 3.9521260328871493 2.4319622000758825 12.174695380571963 1 -1 -1
1284 129 4 0.404798 4.734658269419182 7.7803093307973885 9.274514923383869 0 1 1
794 80 4 0.404798 2.7801406439833305 2.761186053213047 11.319712810177515 1 -1 -1
1281 129 1 -0.091672 4.509763750095109 6.37987335007764 8.990385580174554 0 1 1
795 80 8 -0.358962 1.849289095965765 3.0003720554386155 10.670170320316757 1 -1 -1
792 80 3 0.404798 3.717422775798231 1.8127386036794049 13.398957063080731 1 -1 -1
1102 111 3 0.404798 5.9657380292346245 9.740387138665652 13.507229103733495 -1 0 -1
1101 111 1 -0.091672 5.637416738010313 9.065094446102496 14.729229793151527 -1 0 -1
793 80 7 -0.358962 3.515077569889885 1.3140642019896631 14.426566061081262 1 -1 -1
1194 120 4 0.404798 2.0436800085717812 8.04982636408352 13.622230392781518 0 3 4
1282 129 3 0.404798 4.075777321497432 5.7783040362999 10.232226113320873 0 1 1
1195 120 8 -0.358962 3.0417865190041904 7.903488157931239 13.049545056604671 0 3 4
1283 129 7 -0.358962 3.77119549978453 5.238549434405331 11.212784540499296 0 1 1
799 80 9 -0.358962 5.886545652882177 3.5860183895629074 9.459487039234341 1 -1 -1
797 80 5 0.404798 5.626245821652397 3.1729429955601707 10.511728781342512 1 -1 -1
1103 111 7 -0.358962 6.3162969328197445 10.265827677316144 12.534284765502926 -1 0 -1
1285 129 8 -0.358962 4.930123051041691 8.91631298398011 9.404473171473402 0 1 1
192 20 3 0.404798 9.397676850652932 4.004227526981128 8.17743288386068 -1 3 1
620 62 10 -0.358962 12.901931574610813 4.568168053945452 10.318488644714 1 0 2
798 80 6 0.404798 6.264111654572692 2.0465731287747615 12.616044618231456 1 -1 -1
813 82 7 -0.358962 15.609952188562081 0.42279163747933024 14.119568743101661 1 3 0
439 44 9 -0.358962 9.776291905629318 1.012136100975605 13.12458285960447 0 -1 0
1110 111 10 -0.358962 6.8627148504681434 6.507375296735335 12.826788881198366 -1 0 -1
1108 111 6 0.404798 6.301019681696926 7.060332836025993 13.677868479818585 -1 0 -1
614 62 4 0.404798 12.316086681907276 8.751678759318073 7.886146927016968 1 0 2
983 99 7 -0.358962 5.283768136961022 0.45251612658840273 9.55584657066613 0 0 -2
1191 120 1 -0.091672 0.8493649482454138 8.42963546409216 14.317795790318142 0 3 4
812 82 3 0.404798 15.064192296536746 1.4463613292387816 14.126725483862481 1 3 0
816 82 2 -0.091672 14.915995002255883 3.807943798221603 13.68074589823124 1 3 0
815 82 8 -0.358962 11.83367511912914 2.5844488463111515 14.29254883524708 1 3 0
1620 162 10 -0.358962 11.08482253863926 7.1998970197676595 14.526384932074803 0 -1 -2
200 20 10 -0.358962 8.590629534338557 3.7113347490106077 11.532960431016512 -1 3 1
198 20 6 0.404798 9.375602359555016 3.2358673535159657 10.82348993508348 -1 3 1
1615 162 8 -0.358962 8.321000209882945 9.778451490706791 9.85531082292154 0 -1 -2
613 62 7 -0.358962 12.804564620446744 8.41915103264163 11.317350318263198 1 0 2
191 20 1 -0.091672 10.376012015324434 3.110728166064639 8.687177832184416 -1 3 1
811 82 1 -0.091672 14.372211169251322 2.6349791816183883 14.032957695350094 1 3 0
612 62 3 0.404798 12.71335356461517 8.155417488345051 10.19141736704099 1 0 2
533 54 7 -0.358962 5.797171892555603 3.858111129619158 15.327167446664095 -1 4 -1
1240 124 10 -0.358962 15.00330786780545 2.292147664341503 9.949930671095869 1 2 -2
1614 162 4 0.404798 8.747707651571517 9.441408064211707 10.879968074597935 0 -1 -2
199 20 9 -0.358962 12.089047289993598 0.9604979662996866 10.67313141401764 -1 3 1
1618 162 6 0.404798 10.46555107151095 7.569793304952603 13.617935942239159 0 -1 -2
814 82 4 0.404798 12.988807192961179 2.5359872009144726 14.198096083245025 1 3 0
1616 162 2 -0.091672 9.74432324483295 7.85415404382764 12.401896448692117 0 -1 -2
800 80 10 -0.358962 7.092851045006004 1.5174342606977058 13.231514400518115 1 -1 -1
611 62 1 -0.091672 12.570677654892004 7.692428239589585 8.854760184479561 1 0 2
197 20 5 0.404798 11.261398807295786 1.7179987345969827 10.378529061473191 -1 3 1
1611 162 1 -0.091672 9.378670564810719 9.109373487143124 12.108089980946286 0 -1 -2
1617 162 5 0.404798 9.719583456259434 6.941630174405264 11.359986007389585 0 -1 -2
618 62 6 0.404798 12.847699606522383 5.473356044513135 9.595098314532343 1 0 2
196 20 2 -0.091672 10.340193413049581 2.702294683224891 9.962912544175946 -1 3 1
1619 162 9 -0.358962 9.66184630237283 6.257394385964043 10.42505938182632 0 -1 -2
839 84 9 -0.358962 1.8292444842929223 9.678168250554776 10.112871336166014 2 -2 2
817 82 5 0.404798 14.027687369329998 4.9386222361689756 13.559420626052473 1 3 0
1229 123 9 -0.358962 15.449964389246517 5.821073062914049 11.237135081231816 -3 2 2
819 82 9 -0.358962 13.29976804186932 5.841232178074776 13.527347268132255 1 3 0
1106 111 2 -0.091672 5.6674279112707815 7.7254922535984045 14.7163734904348 -1 0 -1
616 62 2 -0.091672 12.738463259329993 6.4011391162412785 8.538500185331742 1 0 2
1612 162 3 0.404798 9.446739217597747 10.135772401334002 13.022586097071718 0 -1 -2
45 5 8 -0.358962 2.580707653802949 4.392442803528261 15.090316964891521 0 0 2
837 84 5 0.404798 1.594218751202827 10.425135261395747 10.968676908982806 2 -2 2
1196 120 2 -0.091672 0.8761163581062235 8.559014302904522 15.651266984482776 0 3 4
1290 129 10 -0.358962 3.3569177043393816 3.378170657312452 7.829240080872781 0 1 1
1099 110 9 -0.358962 5.414081011454109 0.6864825149077104 19.931491441093875 -1 0 -1
267 27 5 0.404798 8.292291752982582 1.4362107730678535 22.543499654096713 0 0 0
1104 111 4 0.404798 5.23014716984221 9.82014384042981 15.901705931250527 -1 0 -1
1093 110 7 -0.358962 2.581318144193411 5.271817863497047 22.38741868634257 -1 0 -1
1096 110 2 -0.091672 4.600577253649303 2.9058838565213403 21.003489362033285 -1 0 -1
1107 111 5 0.404798 5.39860969831844 7.001622978424913 15.925603407547761 -1 0 -1
1098 110 6 0.404798 5.618604672139444 3.799975504461542 21.37949899915481 -1 0 -1
1109 111 9 -0.358962 5.14941599565202 6.373727765994428 16.868603990159166 -1 0 -1
1097 110 5 0.404798 5.02559767769626 1.6836156947480434 20.37915886286428 -1 0 -1
727 73 5 0.404798 14.396460260226947 1.171617603394379 18.032757057029926 2 -1 3
46 5 2 -0.091672 1.3405695444120242 4.420321427479417 18.282826358611207 0 0 2
1091 110 1 -0.091672 3.296084910611216 3.1192819542786716 21.223400630392288 -1 0 -1
44 5 4 0.404798 1.784232052734405 4.387356694053456 15.933644138357268 0 0 2
435 44 8 -0.358962 10.322255718189178 0.6964011683761157 16.635122104007408 0 -1 0
49 5 9 -0.358962 3.745950507334674 5.09788842409803 18.60910530667641 0 0 2
859 86 9 -0.358962 4.666679846036276 9.398470039092894 20.430589785289698 1 -2 -2
41 5 1 -0.091672 0.9333257097609213 4.254029698578308 17.017085669948514 0 0 2
1094 110 4 0.404798 2.315998361160671 2.2024757033223095 20.77858455573085 -1 0 -1
47 5 5 0.404798 2.640523784000227 4.755211791649561 18.530336901073344 0 0 2
1092 110 3 0.404798 2.9190647003929437 4.315831913742073 21.823842505743883 -1 0 -1
1095 110 8 -0.358962 1.410863365592632 1.5510393364287354 20.459270830372347 -1 0 -1
1100 110 10 -0.358962 6.449977688185742 4.554561222422834 21.671079582312267 -1 0 -1
288 29 6 0.404798 13.245206979075805 8.633469646095788 22.813674492549016 0 -2 -2
1199 120 9 -0.358962 2.947307128081012 8.374390995898674 17.156045224723464 0 3 4
857 86 5 0.404798 4.9514407140544066 9.102619656120064 21.515478587781708 1 -2 -2
856 86 2 -0.091672 5.31583850523305 8.675080180769568 22.88796261901132 1 -2 -2
1197 120 5 0.404798 2.099300101944135 8.464189017257235 16.369648128913163 0 3 4
532 54 3 0.404798 6.4190537208671765 3.6253192473970666 16.27830935395901 -1 4 -1
858 86 6 0.404798 5.217143169250555 7.327863760202585 23.341772248208965 1 -2 -2
1512 152 3 0.404798 12.595077673181859 7.229904696873015 18.411487507726306 0 1 1
536 54 2 -0.091672 7.769188256999999 2.267527965464094 17.820600872273584 -1 4 -1
531 54 1 -0.091672 7.22469807877715 3.431618694780941 17.441097019524165 -1 4 -1
535 54 8 -0.358962 7.557388518135508 5.533286879153349 18.903064581155814 -1 4 -1
534 54 4 0.404798 7.4777956506006715 4.622260012894574 18.189415507697618 -1 4 -1
1493 150 7 -0.358962 8.432188750891338 7.7803775368456005 22.213379956103466 3 1 -1
1514 152 4 0.404798 11.12195840745618 5.934401482629198 17.036200365079758 0 1 1
540 54 10 -0.358962 7.304730486920457 0.2501366364907825 16.341189447730198 -1 4 -1
1511 152 1 -0.091672 11.433334902681729 7.200628056070002 17.685553397754596 0 1 1
638 64 6 0.404798 15.140322694079368 7.40216194779273 16.315189098320314 2 1 0
636 64 2 -0.091672 15.511660085034238 8.78187645611905 16.527709485841942 2 1 0
1513 152 7 -0.358962 13.637196445255729 7.195135628468 18.919797898582026 0 1 1
1491 150 1 -0.091672 10.189993637207351 5.9587966363855545 22.807474752796455 3 1 -1
637 64 5 0.404798 14.584684872515854 9.815585253048065 16.290864536802466 2 1 0
539 54 9 -0.358962 9.43961579629878 1.7759809576717767 19.716326740327403 -1 4 -1
109 11 9 -0.358962 13.089304305302932 1.4200546909708833 22.81781150746797 1 -1 -1
290 29 10 -0.358962 12.431518764094859 8.813553647338376 22.00677844142958 0 -2 -2
724 73 4 0.404798 12.315598333715743 1.864011410738221 19.944574541020444 2 -1 3
721 73 1 -0.091672 12.643560739579438 0.4901418642269229 19.638870676410292 2 -1 3
1492 150 3 0.404798 9.245628030443283 6.995485356829023 22.473880912474428 3 1 -1
1518 152 6 0.404798 11.156396211846856 9.52588881938011 18.018030107947396 0 1 1
1516 152 2 -0.091672 10.64518651533464 8.281608879172355 17.60872535172847 0 1 1
1494 150 4 0.404798 11.501268807228046 5.927007759744917 22.14671770684698 3 1 -1
1517 152 5 0.404798 9.464376397497736 8.257833306743201 16.82446546598009 0 1 1
1515 152 8 -0.358962 10.988922584055153 4.901454625914761 16.52539491029485 0 1 1
269 27 9 -0.358962 9.08308694708361 2.2303057356063327 22.24407334193136 0 0 0
1519 152 9 -0.358962 8.471703756618647 8.283788839910006 16.2248594859745 0 1 1
1495 150 8 -0.358962 12.500451194920165 5.866180918527687 21.560599493965658 3 1 -1
48 5 6 0.404798 0.4821897449755582 4.279698150482117 19.449025494499327 0 0 2
725 73 8 -0.358962 12.132833652150445 2.9938158153989107 20.13362229586426 2 -1 3
537 54 5 0.404798 8.58548921751041 1.9940677305154992 18.96233340930475 -1 4 -1
729 73 9 -0.358962 15.102803702133386 1.843297490372945 17.40384922176154 2 -1 3
1259 126 9 -0.358962 8.346641197062548 9.89276201662014 19.022286337829044 0 -1 1
538 54 6 0.404798 7.564294546678769 1.1454866878504828 17.031533391879528 -1 4 -1
686 69 2 -0.091672 0.11688060671758074 10.306655439017621 21.09090877166659 4 1 -1
687 69 5 0.404798 0.2639684443725251 8.930531759342788 20.655237218020762 4 1 -1
689 69 9 -0.358962 0.5161211150683004 7.883341019373788 20.224643927093133 4 1 -1
1389 139 9 -0.358962 3.2891678459015132 0.09761364725256719 22.535903943786135 2 -2 1
266 27 2 -0.091672 7.2855168017651355 0.36238705411601313 22.78801122791977 0 0 0
726 73 2 -0.091672 13.631765800895977 0.24157723499219547 18.768660221541882 2 -1 3
1353 136 7 -0.358962 14.981585745972732 4.274647217036658 18.86695812925495 0 -5 1
640 64 10 -0.358962 14.776867720746571 6.303571371048122 16.2339540036558 2 1 0
1105 111 8 -0.358962 4.768410141322875 10.386517699264383 16.802605209071864 -1 0 -1
287 29 5 0.404798 15.456478442422766 8.957710202134136 23.20755236760092 0 -2 -2
1387 139 5 0.404798 2.8672486226898486 0.7283738921328937 23.41324405913689 2 -2 1
21 3 1 -0.091672 5.143195414196852 6.598387624567644 28.167354193500444 -1 1 -1
24 3 4 0.404798 4.0633053884336645 6.497807139681724 27.271788641801013 -1 1 -1
25 3 8 -0.358962 3.2518610831522836 6.481136703887532 26.44300627523829 -1 1 -1
27 3 5 0.404798 5.364741984125253 4.236017929763568 28.2768273177447 -1 1 -1
1608 161 6 0.404798 9.257487725392453 10.09427917087587 28.909331379430583 1 0 -1
980 98 10 -0.358962 9.406048189730605 0.284981521729414 25.85230733459283 -1 2 0
284 29 4 0.404798 15.567044879690112 7.337698849870332 25.471446458598617 0 -2 -2
268 27 6 0.404798 6.4513281159171605 0.6375831689555925 23.881480213759055 0 0 0
1501 151 1 -0.091672 1.0237556129701113 0.6230510675028801 30.041481779544544 2 -2 1
1500 150 10 -0.358962 7.802677318330509 5.052579689400877 25.214281562918146 3 1 -1
1384 139 4 0.404798 0.3813558150992929 0.2716352713836045 24.71202734482113 2 -2 1
975 98 8 -0.358962 5.78917709278695 1.7331816244544556 30.496786002268525 -1 2 0
852 86 3 0.404798 6.555075096969074 9.227255817153207 24.94047144373225 1 -2 -2
1607 161 5 0.404798 9.565792686705832 8.458845122319511 30.70305131843852 1 0 -1
860 86 10 -0.358962 5.165617974413137 6.202012094855469 23.616368623122604 1 -2 -2
853 86 7 -0.358962 7.012993671140654 8.927733058230443 25.96330898860358 1 -2 -2
29 3 9 -0.358962 4.986783972905656 3.2486637420405797 27.79946035791448 -1 1 -1
26 3 2 -0.091672 5.821895277158703 5.551422164451645 28.656056262242277 -1 1 -1
22 3 3 0.404798 5.580197584777931 7.933931181278235 28.419182121276584 -1 1 -1
1503 151 7 -0.358962 3.0871117654784057 0.20765186944623443 28.60582859396267 2 -2 1
23 3 7 -0.358962 5.988612826327327 8.993451017475362 28.656278419916614 -1 1 -1
107 11 5 0.404798 13.185798312325906 0.4958816255438671 23.51221269375442 1 -1 -1
1386 139 2 -0.091672 2.3190682317597924 1.5798562357423158 24.463061388999474 2 -2 1
28 3 6 0.404798 6.97802461149396 5.515553002017365 29.527121084208325 -1 1 -1
293 30 7 -0.358962 0.3987869460872179 5.514443505665595 29.40043075448343 -2 0 -1
1381 139 1 -0.091672 1.11132594538588 1.412342806109796 25.01884709802771 2 -2 1
1382 139 3 0.404798 0.46275502155315423 2.3714961896508657 25.8353495777128 2 -2 1
1504 151 4 0.404798 1.1504859110941414 1.633831980675985 30.989022629598832 2 -2 1
30 3 10 -0.358962 7.927522444947856 5.4390295540029925 30.189086335902825 -1 1 -1
919 92 9 -0.358962 3.1291609167648633 9.670374612767414 26.841372376831302 -2 -1 -3
1497 150 5 0.404798 11.006464766905795 4.26861224236603 24.246498978410443 3 1 -1
1388 139 6 0.404798 3.0228227639268987 2.731207974144659 24.801048105592056 2 -2 1
1390 139 10 -0.358962 3.548729478476384 3.7506691613940113 24.973445310154695 2 -2 1
292 30 3 0.404798 0.19269222600531616 6.629268204479655 29.645972716774214 -2 0 -1
974 98 4 0.404798 6.48210977606752 1.5865357773073245 29.578124318787346 -1 2 0
851 86 1 -0.091672 5.942831971403788 9.565281895439389 23.669000445944693 1 -2 -2
978 98 6 0.404798 8.5335475221542 0.34577463577427753 26.61430913441336 -1 2 0
604 61 4 0.404798 0.8310103341908794 7.216440977466652 23.897456271652544 1 -2 -2
294 30 4 0.404798 0.697804481313891 8.741706882338645 30.723806754883206 -2 0 -1
976 98 2 -0.091672 7.607090937323502 0.4333767500859244 27.70696944163558 -1 2 0
971 98 1 -0.091672 7.3585415219415795 1.5386334478307022 28.422672464362122 -1 2 0
1498 150 6 0.404798 8.743920189551595 5.049582463280111 24.536304530099656 3 1 -1
1502 151 3 0.404798 2.2038303873826255 0.42415866970323485 29.325924979964512 2 -2 1
1113 112 7 -0.358962 9.217522576785665 1.747168956010246 30.94913769196189 -2 0 1
286 29 2 -0.091672 14.302412507443552 8.348272219910418 23.69488795150497 0 -2 -2
1548 155 6 0.404798 14.77795937577261 4.82586080237861 28.29385001250364 1 -1 1
281 29 1 -0.091672 14.34599108405678 7.543609542505803 24.76550407338936 0 -2 -2
972 98 3 0.404798 7.958966731799341 2.695167663845404 27.97865561817849 -1 2 0
283 29 7 -0.358962 12.232288459140241 6.305182084944948 25.566022406615996 0 -2 -2
1496 150 2 -0.091672 9.965677433775781 5.099790059437953 23.81116287929822 3 1 -1
973 98 7 -0.358962 8.503097962663592 3.669013926858113 27.660623180532642 -1 2 0
1114 112 4 0.404798 11.809204255534368 1.484190340914279 28.577417441015903 -2 0 1
282 29 3 0.404798 13.14468672559545 6.953146725837428 25.26061903155337 0 -2 -2
1604 161 4 0.404798 10.385463495710903 6.505115847032919 28.925362858910535 1 0 -1
1605 161 8 -0.358962 10.783235876598349 5.4814359116296085 29.298801574326326 1 0 -1
1112 112 3 0.404798 10.158859166214516 1.2917395848984976 30.44707244641821 -2 0 1
483 49 7 -0.358962 12.820613413864944 8.757302178084071 30.698074237962928 0 -1 -1
1602 161 3 0.404798 9.991880589172212 7.933005960371107 27.025850452569195 1 0 -1
1601 161 1 -0.091672 9.974407996378227 7.798254226193758 28.483222821244865 1 0 -1
1499 150 9 -0.358962 11.811093731903927 3.498312745257814 24.570244074796594 3 1 -1
1115 112 8 -0.358962 12.36386442149986 2.0991972252458933 27.765186839385873 -2 0 1
1606 161 2 -0.091672 9.56010165183072 8.753462153755807 29.326744012359292 1 0 -1
1111 112 1 -0.091672 11.219715181896975 0.7233824622339458 29.6478112563764 -2 0 1
1550 155 10 -0.358962 13.995782950029023 5.278592347256622 27.56664015619758 1 -1 1
1603 161 7 -0.358962 10.052316676003565 8.097991210561803 25.87923489724925 1 0 -1
270 27 10 -0.358962 5.783173676556911 0.8776554826669238 24.798832341204704 0 0 0
1153 116 7 -0.358962 12.390250966214658 9.917982588130526 26.33786407576224 -1 2 0
605 61 8 -0.358962 1.6684578440565816 7.903197768089643 23.481948455707755 1 -2 -2
239 24 9 -0.358962 14.42955126322524 14.781414266951504 1.1946551375940422 0 1 0
968 97 6 0.404798 5.515489070832868 20.73277541536462 2.657171712541259 0 2 1
1005 101 8 -0.358962 4.111156037169521 16.88883340404261 1.9056903538744776 1 -1 2
1004 101 4 0.404798 4.446230424029478 17.269238290000768 0.8623221630453841 1 -1 2
1420 142 10 -0.358962 1.4906824188440686 13.740869021406263 1.376396023115354 0 1 3
1418 142 6 0.404798 0.6716601814981896 13.550357423170048 2.1754629083553363 0 1 3
58 6 6 0.404798 14.664397004056411 17.070849731944467 6.556179137299016 -2 1 3
1304 131 4 0.404798 6.451334328002228 10.97189224233646 6.5522383256010635 0 0 -3
731 74 1 -0.091672 3.500623541488138 17.22608843539582 7.026844120214812 0 -1 1
733 74 7 -0.358962 1.507973065239761 16.08168188758364 5.87479682945795 0 -1 1
732 74 3 0.404798 2.4096244779279505 16.602552361989666 6.3859901966621795 0 -1 1
1413 142 7 -0.358962 1.8528811598147585 11.666971783087227 5.048266189728393 0 1 3
737 74 5 0.404798 4.943792447968019 19.02554155536925 7.376884139968448 0 -1 1
740 74 10 -0.358962 3.498681811875718 19.349895728694143 4.289588125653941 0 -1 1
736 74 2 -0.091672 3.97191067408084 18.406307393310122 6.6019069202596805 0 -1 1
969 97 9 -0.358962 8.138569173263244 19.823092854095616 4.596482672262465 0 2 1
60 6 10 -0.358962 13.982985967447329 16.15638864734722 6.343953072399502 -2 1 3
1553 156 7 -0.358962 4.611002330668987 13.261630176302143 4.770850259943862 1 1 0
738 74 6 0.404798 3.6594025315661947 18.95374917548066 5.367937189689545 0 -1 1
1554 156 4 0.404798 4.9880987082469295 12.288214100267822 1.5332912574439148 1 1 0
149 15 9 -0.358962 6.812449021386013 15.075159611505008 6.9829675623915834 1 2 -1
1552 156 3 0.404798 5.168870527259677 13.08595813268541 3.7690906340735975 1 1 0
1551 156 1 -0.091672 5.8209282502783735 12.857072763849946 2.4954367302579157 1 1 0
1593 160 7 -0.358962 11.036621056962312 18.411849617772234 0.8065587197781158 -1 2 0
1147 115 5 0.404798 15.049294109382187 12.440399979579487 5.914642476649835 -1 -1 -1
823 83 7 -0.358962 11.1719985312569 10.646327589007504 4.896429005955562 0 0 -1
828 83 6 0.404798 11.84249156961597 12.706996611788618 2.1952957030028175 0 0 -1
56 6 2 -0.091672 15.453844152595048 18.199758539534685 6.979029186447554 -2 1 3
967 97 5 0.404798 7.259014479755679 20.458349897600353 4.186077965962249 0 2 1
1560 156 10 -0.358962 8.240508877699396 13.878666386677647 4.4402059686491935 1 1 0
53 6 7 -0.358962 14.200932450213344 19.393491119183057 3.926277846141927 -2 1 3
1301 131 1 -0.091672 6.823637562604764 11.84582754968302 7.5556655758186055 0 0 -3
1555 156 8 -0.358962 4.358136380687929 11.679397964871956 0.7729687154704745 1 1 0
970 97 10 -0.358962 4.9142662542697435 20.29495708683017 1.7669772303694373 0 2 1
1302 131 3 0.404798 8.201595262404036 12.135929213387822 7.645924809056717 0 0 -3
1412 142 3 0.404798 0.9105020334637124 12.204499255726978 4.637674202081693 0 1 3
830 83 10 -0.358962 11.806866012053597 11.921775989146763 1.3422075960439526 0 0 -1
623 63 7 -0.358962 1.1968063727914982 19.782682855131558 1.950777558300379 -1 1 2
1149 115 9 -0.358962 14.206600292141648 12.860548977739647 6.592094996739698 -1 -1 -1
1591 160 1 -0.091672 12.829486269796856 20.202641676658097 1.0432569769242168 -1 2 0
1009 101 9 -0.358962 7.855017865130476 16.58042589623469 0.7120707703148516 1 -1 2
826 83 2 -0.091672 11.844965937787014 13.605455118515247 3.319128726129071 0 0 -1
1594 160 4 0.404798 14.086622002547262 20.049985584283093 0.39827161152126933 -1 2 0
827 83 5 0.404798 12.124398177812195 15.008351112581021 3.1180278119397733 0 0 -1
51 6 1 -0.091672 15.31498376647495 19.347000044102334 6.300682275700613 -2 1 3
143 15 7 -0.358962 11.341634418324512 18.92877501884338 6.627323379534553 1 2 -1
824 83 4 0.404798 11.451043250968528 13.945131805562202 5.699529573914328 0 0 -1
1592 160 3 0.404798 11.85922922705902 19.21791417616548 0.9450351046501485 -1 2 0
822 83 3 0.404798 11.343020642699742 11.781542666345171 4.730181797370799 0 0 -1
142 15 3 0.404798 10.410655166648851 18.259177597389023 6.452632468866756 1 2 -1
146 15 2 -0.091672 8.849931258721412 16.700431285183257 7.2287517845723155 1 2 -1
147 15 5 0.404798 7.7329538047588215 15.772555261282228 7.092101571068428 1 2 -1
825 83 8 -0.358962 11.176563188853034 14.704688484687106 6.5321965478184625 0 0 -1
144 15 4 0.404798 8.987826661437634 17.09955056185165 4.893838920880465 1 2 -1
821 83 1 -0.091672 11.64473814520347 13.118834406131459 4.551487882113849 0 0 -1
1557 156 5 0.404798 7.83684574376091 13.039699724757881 1.11364737930519 1 1 0
1558 156 6 0.404798 7.831022351481227 13.478825305497967 3.431222406097735 1 1 0
52 6 3 0.404798 14.653818570366594 19.360864497923842 4.993718547313442 -2 1 3
141 15 1 -0.091672 9.425081582117222 17.350141546221927 6.207635407238127 1 2 -1
1556 156 2 -0.091672 7.107787642620565 13.168957401294506 2.289716522747763 1 1 0
145 15 8 -0.358962 8.687328253393327 16.828471876642666 3.806724828400015 1 2 -1
1559 156 9 -0.358962 8.442506570863488 12.985030284419798 0.12582846691757968 1 1 0
829 83 9 -0.358962 12.18597204463927 16.153924994467015 2.9463622513268715 0 0 -1
1060 106 10 -0.358962 0.7167627156008232 19.581119210963763 5.161626964231846 1 1 0
622 63 3 0.404798 1.2783792971594625 20.822714043269897 1.44354883825318 -1 1 2
237 24 5 0.404798 14.549064174301138 13.870993710868575 0.4858173515039983 0 1 0
660 66 10 -0.358962 2.451175678792986 20.84915434593119 7.783120853075889 -1 -1 2
1303 131 7 -0.358962 9.347698443480777 12.314386813968282 7.660079464393972 0 0 -3
772 78 3 0.404798 2.1921952121272814 16.169364461401084 14.086303554520578 1 0 -1
778 78 6 0.404798 4.603958060802258 17.87713650889416 14.208138720878907 1 0 -1
771 78 1 -0.091672 2.820296331454748 16.758201902175546 12.973419695035265 1 0 -1
774 78 4 0.404798 2.2205124489585484 16.391695537097792 11.716181432075315 1 0 -1
776 78 2 -0.091672 3.88046952180075 17.577413838073316 12.996323982166881 1 0 -1
777 78 5 0.404798 4.430467238591683 18.18459252247045 11.870632079860211 1 0 -1
838 84 6 0.404798 1.6486390799125932 11.286674644924009 13.189058771033343 2 -2 2
775 78 8 -0.358962 1.714164316476363 16.078354873698434 10.720676964092517 1 0 -1
1308 131 6 0.404798 6.380860794702441 13.298793464927613 9.463522114439957 0 0 -3
779 78 9 -0.358962 4.919746740713786 18.73971269565556 10.977297255582211 1 0 -1
836 84 2 -0.091672 1.2596589315542133 11.448878075663774 11.890337633625222 2 -2 2