LAMMPS data file via write_data, version 29 Sep 2021, timestep = 1000000

1800 atoms
10 atom types
1620 bonds
9 bond types
1800 angles
10 angle types
2160 dihedrals
12 dihedral types

0 32.6128 xlo xhi
0 29.5228 ylo yhi
0 32.2408 zlo zhi
1.80775012609337e-15 1.9741796260975e-15 1.9741796260975e-15 xy xz yz

Masses

1 12.01
2 12.01
3 12.01
4 12.01
5 12.01
6 12.01
7 14.01
8 14.01
9 14.01
10 14.01

Pair Coeffs # lj/cut/coul/long

1 0.076 3.55
2 0.076 3.55
3 0.066 3.3
4 0.066 3.3
5 0.066 3.3
6 0.066 3.3
7 0.17 3.2
8 0.17 3.2
9 0.17 3.2
10 0.17 3.2

Bond Coeffs # harmonic

1 400 1.426
2 400 1.426
3 400 1.426
4 400 1.426
5 549 1.34
6 650 1.16
7 650 1.16
8 650 1.16
9 650 1.16

Angle Coeffs # harmonic

1 70 116.8
2 70 116.8
3 70 121.6
4 70 121.6
5 70 121.6
6 70 121.6
7 70 178.9
8 70 178.9
9 70 178.9
10 70 178.9

Dihedral Coeffs # opls

1 0 0 0 0
2 0 0 0 0
3 0 0 0 0
4 0 0 0 0
5 0 0 0 0
6 0 0 0 0
7 0 0 0 0
8 0 0 0 0
9 0 14 0 0
10 0 14 0 0
11 0 14 0 0
12 0 14 0 0

Atoms # full

16 2 2 -0.091672 7.047103147302065 4.542776311537689 9.499206297134615 0 0 0
1424 143 4 0.404798 0.2472800127941211 12.946175385100878 0.932725866449177 1 0 1
230 23 10 -0.358962 2.299868587164046 14.66135983430656 7.581084215551939 1 0 0
1784 179 4 0.404798 0.4302865828927525 0.8102317631755046 1.1191118755994345 1 1 1
1304 131 4 0.404798 0.48622166598013195 7.093102921577959 1.2215571573784354 1 0 1
102 11 3 0.404798 0.5315715923397906 8.42802690355819 10.113124448873144 1 0 0
253 26 7 -0.358962 4.848945992496373 14.32860557521322 9.871354979690071 0 0 0
1305 131 8 -0.358962 0.24438464342498195 6.495426058793373 2.2351323772495517 1 0 1
227 23 5 0.404798 2.4586916758078603 11.729750544860622 9.465978575833535 1 0 0
1763 177 7 -0.358962 5.776898589532009 3.596322775182079 4.291601030382571 1 1 1
497 50 5 0.404798 7.794488688600187 0.039603817635990086 9.67175595159481 0 1 0
1764 177 4 0.404798 4.862208390129327 0.9747183181101972 6.307541999432925 1 1 1
107 11 5 0.404798 2.6861411676395757 5.508523412589317 9.548532880115326 1 0 0
108 11 6 0.404798 2.3561590254511744 7.571712250455367 8.191665337402368 1 0 0
110 11 10 -0.358962 2.54122534089551 8.21610142873321 7.212999814022562 1 0 0
1215 122 8 -0.358962 5.13733026307678 5.614643950653486 1.917711296419518 0 0 1
106 11 2 -0.091672 2.1026688203188524 6.801980779748966 9.420368235126604 1 0 0
228 23 6 0.404798 2.1132973871487284 13.873387156794832 8.473395040590237 1 0 0
1214 122 4 0.404798 5.557027974600849 4.937158781290362 1.0653876789120642 0 0 1
226 23 2 -0.091672 1.8070980258672233 12.953317177420276 9.506005833888935 1 0 0
1283 129 7 -0.358962 5.926925267107247 9.71559888497476 5.257782519370536 1 0 1
1410 141 10 -0.358962 2.9740674531950373 14.193152516496788 2.1813663325613155 1 0 1
1315 132 8 -0.358962 0.04542111936889468 5.81886777075694 7.077245108290957 1 0 1
1435 144 8 -0.358962 0.16085743846682923 11.496200657646957 7.195199229714987 1 0 1
586 59 2 -0.091672 1.8545021114429643 1.2662410877859551 9.723309041966708 1 1 0
588 59 6 0.404798 2.218555484525094 1.8958079068592044 8.504409095759014 1 1 0
590 59 10 -0.358962 2.4719962550485026 2.5448060247489575 7.595271010850049 1 1 0
1289 129 9 -0.358962 2.6548079636467574 4.787825072412469 4.327593051385113 1 0 1
1409 141 9 -0.358962 2.6413041963532 10.866218663710036 5.206264175295528 1 0 1
1288 129 6 0.404798 3.404290677966751 8.084707035078102 3.4055672592463946 1 0 1
1290 129 10 -0.358962 3.115271769399506 8.848023754786336 2.596017403257246 1 0 1
1425 143 8 -0.358962 0.05027133929271275 12.550634957041497 2.0121539330331117 1 0 1
1313 132 7 -0.358962 0.691751761320138 2.0299298877004515 4.937668451348608 1 0 1
1768 177 6 0.404798 3.1255147135281875 1.7314399437849295 3.0045186417899172 1 1 1
1770 177 10 -0.358962 2.8018974304790865 2.2341175469824406 2.001362384125552 1 1 1
1281 129 1 -0.091672 4.7021039228209505 7.448339931467608 5.317978252657201 1 0 1
1282 129 3 0.404798 5.404965493383503 8.697748809404137 5.377981471699481 1 0 1
1284 129 4 0.404798 5.161703486573205 6.483478755847982 6.296463064891331 1 0 1
1286 129 2 -0.091672 3.791476355721654 7.1370325457600625 4.408579633753456 1 0 1
1287 129 5 0.404798 3.221023354683485 5.841523502469668 4.310370543666422 1 0 1
1401 141 1 -0.091672 4.5720939525721995 13.598139902119437 5.341509722775201 1 0 1
1359 136 9 -0.358962 7.932237275381993 12.82124408075801 5.577648543085059 0 0 1
1404 141 4 0.404798 4.994342767007081 13.00925284738751 6.580805490609688 1 0 1
1406 141 2 -0.091672 3.726726930746223 13.047904545768619 4.488991888951389 1 0 1
1407 141 5 0.404798 3.1200333971653333 11.81513421698153 4.8184197699526266 1 0 1
1761 177 1 -0.091672 4.423894860522622 1.5506341278789102 5.027782234964938 1 1 1
1762 177 3 0.404798 5.130836829377546 2.7241021413215494 4.701122531695704 1 1 1
109 11 9 -0.358962 3.0911951515924567 4.4877425680332665 9.78207333181589 1 0 0
1766 177 2 -0.091672 3.4813551184333855 1.0704394137978588 4.214891830943509 1 1 1
1785 179 8 -0.358962 0.19146038423930153 0.15875194395620182 2.04966658719588 1 1 1
1335 134 8 -0.358962 5.6436126372603805 11.56577658976598 2.5239245296416546 0 0 1
221 23 1 -0.091672 0.8942757610444727 13.329338154029001 10.43535343021306 1 0 0
1408 141 6 0.404798 3.318011735863601 13.657517905765502 3.160055196004794 1 0 1
1285 129 8 -0.358962 5.481527931381191 5.809238389163513 7.158535643002458 1 0 1
1405 141 8 -0.358962 5.32611272154966 12.486971363168148 7.5213150521710075 1 0 1
1334 134 4 0.404798 5.734488988901999 10.937811811248137 1.57584865357096 0 0 1
140 14 10 -0.358962 7.7981209993969545 8.810768804987022 7.344338199656107 0 0 0
136 14 2 -0.091672 7.242453010993649 10.232354059956 9.449040865046154 0 0 0
1553 156 7 -0.358962 0.9003209008570565 14.387414339796925 4.601082299581418 1 0 1
137 14 5 0.404798 7.8394493118448345 11.502838336839929 9.601441927304162 0 0 0
18 2 6 0.404798 7.389142417149793 3.8229632681146843 8.27022966181586 0 0 0
131 14 1 -0.091672 6.251062269136091 9.887156557849071 10.266018546825505 0 0 0
138 14 6 0.404798 7.534476636942446 9.48531485162434 8.286503559935031 0 0 0
1433 144 7 -0.358962 0.38019034406385965 7.94126693633672 4.775716330333244 1 0 1
101 11 1 -0.091672 1.21044396815604 7.21666748236548 10.285881262200258 1 0 0
13 2 7 -0.358962 5.18796582386813 1.8052100370244801 10.253767205285975 0 0 0
12 2 3 0.404798 5.695846600412018 2.7903550975965423 10.343890461365387 0 0 0
582 59 3 0.404798 0.24902453517197942 3.066453223966556 10.021836022465177 1 1 0
581 59 1 -0.091672 0.8754887264804586 1.855747446894538 10.449179422496448 1 1 0
17 2 5 0.404798 7.8517049152564775 5.6277123454050715 9.787034960504387 0 0 0
1332 134 3 0.404798 5.319899373758863 8.905534073107091 0.22835251335254708 0 0 1
133 14 7 -0.358962 5.113115836193292 7.544457207627817 10.055045949111673 0 0 0
132 14 3 0.404798 5.563110920472267 8.632843946768634 10.090773236641134 0 0 0
229 23 9 -0.358962 3.096958138992198 10.743086430976772 9.438521411731232 1 0 0
1212 122 3 0.404798 5.504667726725192 2.6225976131867177 0.03143824626186771 0 0 1
1331 134 1 -0.091672 5.985087123479138 10.15971211155394 0.4066945388728711 0 0 1
1239 124 9 -0.358962 7.811863899355235 6.726618308690762 4.250924512137541 0 0 1
1719 172 9 -0.358962 7.959283668561818 0.9799838920348719 4.790878690333356 0 1 1
1765 177 8 -0.358962 5.278058504577647 0.5681603898428056 7.311286509745011 1 1 1
1312 132 3 0.404798 0.12095136592311859 2.996828588557097 5.135798873534985 1 0 1
11 2 1 -0.091672 6.325526069456517 4.073178774288083 10.483480015836154 0 0 0
20 2 10 -0.358962 7.610657176909294 3.117025154212022 7.393427494003956 0 0 0
1211 122 1 -0.091672 6.027318628291317 3.9827154167229097 0.14988988576808066 0 0 1
222 23 3 0.404798 0.3328207838308377 14.678707211314071 10.511796183898875 1 0 0
210 21 10 -0.358962 3.2713990138138667 14.473134716479048 12.860917578309396 1 0 0
827 83 5 0.404798 2.232905563351916 11.735940494929398 20.33203381107353 1 0 0
584 59 4 0.404798 0.23342087733928976 1.1886468770164864 11.622786108406341 1 1 0
830 83 10 -0.358962 1.577296306026042 14.432978060683544 18.23370369005186 1 0 0
353 36 7 -0.358962 0.3046149345232119 13.497858327592667 15.40208714450618 1 0 0
706 71 2 -0.091672 1.57322388316224 6.968703579727186 20.685949129433148 1 0 0
731 74 1 -0.091672 6.040955061746382 9.980180312145164 21.177311654487635 0 0 0
736 74 2 -0.091672 6.964372733549758 10.504667417926106 20.321920441340474 0 0 0
14 2 4 0.404798 6.124188892323303 4.894447118842336 11.625498145010571 0 0 0
1099 110 9 -0.358962 7.731927667632499 1.0717201633133127 20.764793526770834 0 1 0
104 11 4 0.404798 0.6842910398875085 6.542960204831424 11.426591831423917 1 0 0
519 52 9 -0.358962 8.071954017224856 1.0619855684469728 15.592878089937109 0 1 0
208 21 6 0.404798 3.3486754782312316 13.801823568005478 13.783637016302581 1 0 0
708 71 6 0.404798 1.6325557730844114 7.429177674003014 19.324721735299008 1 0 0
710 71 10 -0.358962 1.695114709270295 7.963450072135093 18.275803014470124 1 0 0
828 83 6 0.404798 1.6408051081951291 13.818387214076388 19.19397191230578 1 0 0
15 2 8 -0.358962 6.0056143970020734 5.531742686512992 12.540533426151919 0 0 0
233 24 7 -0.358962 0.47012758308919916 7.745102872652727 15.036085682085266 1 0 0
39 4 9 -0.358962 7.58351979469877 6.8433777234280955 15.589229440190742 0 0 0
134 14 4 0.404798 5.880666888333989 10.623669744249257 11.440932775061713 0 0 0
821 83 1 -0.091672 0.8886897147584956 13.528110877993607 21.453977672832135 1 0 0
613 62 7 -0.358962 4.6315456384408815 2.237433881807576 21.4216620882563 0 0 0
709 71 9 -0.358962 2.573881707412133 4.656381406886998 21.014625397334346 1 0 0
1186 119 2 -0.091672 1.4530591605913756 1.207389011455096 20.430475070635453 1 1 0
618 62 6 0.404798 6.744251305830762 4.3621882572752195 19.14895304072795 0 0 0
1188 119 6 0.404798 1.8196473164493134 2.141623689712495 19.29988690225547 1 1 0
1190 119 10 -0.358962 2.027383064825254 2.861673355902614 18.3879503463577 1 1 0
89 9 9 -0.358962 2.4856156456424747 4.453123447455351 15.015305794538211 1 0 0
209 21 9 -0.358962 2.3436530623657887 10.791706898322943 15.07704331488678 1 0 0
88 9 6 0.404798 3.418507977126604 7.5438057686507145 13.806363888868372 1 0 0
90 9 10 -0.358962 3.400592603210241 8.272907521082592 12.923492552690554 1 0 0
565 57 8 -0.358962 5.121202022180292 0.5109724040138817 17.984676927492092 1 1 0
105 11 8 -0.358962 0.4296677106520791 5.885399814713284 12.335158400171746 1 0 0
568 57 6 0.404798 3.2957308059193267 1.691407817908149 13.607831836896604 1 1 0
570 57 10 -0.358962 3.106262624193101 2.302255676016168 12.669438081943527 1 1 0
81 9 1 -0.091672 4.198171204744314 7.163496924088547 16.08352102260008 1 0 0
82 9 3 0.404798 4.973502554013469 8.36903701931358 16.147463056558227 1 0 0
84 9 4 0.404798 4.213902692400294 6.356555338571893 17.26173959204205 1 0 0
86 9 2 -0.091672 3.5788390279863385 6.776928652411789 14.990549838895587 1 0 0
87 9 5 0.404798 2.9862801381618045 5.455085337908347 14.861956205163622 1 0 0
201 21 1 -0.091672 4.369512100311324 13.365947333513654 15.850035178051993 1 0 0
826 83 2 -0.091672 1.515996994690877 13.010119131600579 20.36861605427687 1 0 0
204 21 4 0.404798 4.624301443849717 12.670642733097337 17.060399122291845 1 0 0
206 21 2 -0.091672 3.4563813328735957 12.990013929192013 14.916207590057349 1 0 0
207 21 5 0.404798 2.8391715405777203 11.80697470845546 14.936007922036744 1 0 0
561 57 1 -0.091672 4.397413520195063 1.543380153675317 15.75137601274794 1 1 0
562 57 3 0.404798 5.084667048438384 2.784375728774421 15.489252097866293 1 1 0
564 57 4 0.404798 4.77265724904756 0.8802712918118656 16.94531781754614 1 1 0
566 57 2 -0.091672 3.575483314933108 1.0391384508942074 14.863416872444324 1 1 0
853 86 7 -0.358962 4.6613190795191555 13.957651106736963 20.77416510946777 0 0 0
707 71 5 0.404798 2.173956203197671 5.70944991884982 20.842097656537426 1 0 0
616 62 2 -0.091672 6.772473196613684 4.9485639515371 20.42775541097499 0 0 0
135 14 8 -0.358962 5.577097676991401 11.331452643365186 12.297901688364368 0 0 0
85 9 8 -0.358962 4.308468998479736 5.679799546604574 18.147861004606437 1 0 0
205 21 8 -0.358962 4.851118111867096 12.08261587358165 18.035068417584906 1 0 0
563 57 7 -0.358962 5.643234294115709 3.721863939741339 15.214573992124008 1 1 0
83 9 7 -0.358962 5.62953654457657 9.33922467061543 16.273961483162932 1 0 0
737 74 5 0.404798 7.609625379365703 11.694167739070942 20.730027455723004 0 0 0
732 74 3 0.404798 5.3597927999386155 8.755480018663462 20.892346725603186 0 0 0
738 74 6 0.404798 7.632975999000803 9.888293230402015 19.280949518007183 0 0 0
612 62 3 0.404798 5.291176493817179 3.228262057836554 21.465477980026723 0 0 0
620 62 10 -0.358962 6.8623215841782645 3.7624037825484975 18.165434905291786 0 0 0
740 74 10 -0.358962 8.095569630714301 9.27304314136455 18.43764333741222 0 0 0
617 62 5 0.404798 7.481136199436096 6.102890587898649 20.456541643786856 0 0 0
611 62 1 -0.091672 6.077093700948562 4.4384273334672635 21.489407483787225 0 0 0
113 12 7 -0.358962 0.6290143181576007 1.8201646779516278 15.644001785277299 1 0 0
829 83 9 -0.358962 2.8625783802259317 10.781196182060938 20.40763469908125 1 0 0
224 23 4 0.404798 0.4989933001132776 12.414923714341944 11.46550702012863 1 0 0
160 16 10 -0.358962 8.027471610654795 8.993205649317007 13.449567558598554 0 0 0
159 16 9 -0.358962 7.809806538864435 12.861312345012312 15.457620488838694 0 0 0
202 21 3 0.404798 5.13183910304008 14.521385245279308 15.668981263110247 1 0 0
733 74 7 -0.358962 4.795555283395625 7.706488234461971 20.67954399354466 0 0 0
619 62 9 -0.358962 8.030831760623526 7.126473041289391 20.43251027053293 0 0 0
225 23 8 -0.358962 0.24890649248060287 11.65997777494842 12.265730120197773 1 0 0
37 4 5 0.404798 8.150323332995024 5.874510271139184 15.438579538537764 0 0 0
1181 119 1 -0.091672 0.6311013975266927 1.52969632326445 21.480487115322976 1 1 0
702 71 3 0.404798 0.11103290896409902 8.74679816490019 21.44197683507158 1 0 0
833 84 7 -0.358962 1.1010067138698254 8.220472916231447 26.911194608128067 1 0 0
1430 143 10 -0.358962 2.262965794068388 14.279480660797837 28.926399272790476 1 0 0
1302 131 3 0.404798 0.32018694497142686 9.003147838851463 31.9861638335017 1 0 0
1782 179 3 0.404798 0.1564309544309612 2.9084048927071238 32.07538720137864 1 1 0
1426 143 2 -0.091672 1.7358731500997746 13.071789028996664 31.196751471948392 1 0 0
734 74 4 0.404798 5.579481915351248 10.564565841196893 22.410314893200958 0 0 0
1163 117 7 -0.358962 5.880319063744298 4.1250782907527785 26.831004162106275 1 1 0
1786 179 2 -0.091672 1.745245490459697 1.1956470893860551 31.26087182645786 1 1 0
1184 119 4 0.404798 0.41729130945505655 0.5843505265870692 22.541927045623524 1 1 0
704 71 4 0.404798 0.7963744674382802 7.0573618640489695 22.960844957443225 1 0 0
810 81 10 -0.358962 3.3066822924828334 14.099013870905594 23.39524355867775 1 0 0
808 81 6 0.404798 3.5740636744879097 13.55951231367107 24.399226931174073 1 0 0
1309 131 9 -0.358962 2.8331514248331895 4.973046809197358 31.89354671897672 1 0 0
1308 131 6 0.404798 2.4553419957055276 8.061500431893638 30.310837801327974 1 0 0
1310 131 10 -0.358962 2.7426934372846263 8.789125089791344 29.427972663240215 1 0 0
1429 143 9 -0.358962 3.0530145679428933 11.07856007338745 32.044411472484235 1 0 0
615 62 8 -0.358962 5.989635236655143 5.356015840011918 23.985140270763058 0 0 0
832 84 3 0.404798 0.3646142519998681 9.125058342399651 27.0213785848669 1 0 0
1167 117 5 0.404798 3.3624394389150707 0.16188912374939707 26.27989512102837 1 1 0
1428 143 6 0.404798 2.0525566487052274 13.741909697067964 29.934085104133533 1 0 0
701 71 1 -0.091672 0.809045629754561 7.570765257729481 21.639782845385795 1 0 0
683 69 7 -0.358962 6.105192595931472 9.774292471088378 26.772231607151234 1 0 0
1336 134 2 -0.091672 6.914278170278816 10.582589811893452 31.709983480846017 0 0 0
1340 134 10 -0.358962 7.035935872010857 9.147205901222621 29.613973030259523 0 0 0
614 62 4 0.404798 6.012165489147998 4.98632689906612 22.851586008952406 0 0 0
1788 179 6 0.404798 2.0982572799709636 1.9704087696047878 30.130773147312997 1 1 0
1790 179 10 -0.358962 2.2315157927543483 2.5547965343312735 29.14452702055518 1 1 0
689 69 9 -0.358962 2.6101680307455486 4.942310192388343 27.144068201468816 1 0 0
809 81 9 -0.358962 2.8515863349833297 10.710677324148902 25.91147960950458 1 0 0
688 69 6 0.404798 3.6210709888386923 7.639270194657863 25.090961211293823 1 0 0
690 69 10 -0.358962 3.455125160547871 8.116623126218476 24.071714276258106 1 0 0
1119 112 9 -0.358962 8.06103276719153 0.2306349426067701 26.923222680326937 0 1 0
953 96 7 -0.358962 0.11890066763989852 13.966968425327298 26.582618731385043 1 0 0
1168 117 6 0.404798 3.36996930191766 2.3942015152535 25.270881170992684 1 1 0
1170 117 10 -0.358962 3.1630323989002864 3.0781833202654703 24.364536296933547 1 1 0
681 69 1 -0.091672 4.830650196476529 7.590735997471117 27.181878806715822 1 0 0
682 69 3 0.404798 5.480642467439298 8.81950322544258 26.926414728075322 1 0 0
684 69 4 0.404798 5.15534253419486 6.851313297595173 28.35607658222413 1 0 0
686 69 2 -0.091672 3.9050972613348995 7.068823533617554 26.354079679450606 1 0 0
687 69 5 0.404798 3.250721153230914 5.861394289213632 26.778948684406753 1 0 0
801 81 1 -0.091672 4.647266860907439 13.725369094804215 26.60187977517856 1 0 0
1218 122 6 0.404798 7.506048400518172 3.449346482435872 30.463652390498115 0 0 0
804 81 4 0.404798 4.880148068261566 13.162494302133858 27.94935409340651 1 0 0
806 81 2 -0.091672 3.8516821777462176 13.07590819938045 25.694318773418445 1 0 0
807 81 5 0.404798 3.2931516885182717 11.79300747274082 25.903913098707825 1 0 0
1161 117 1 -0.091672 4.608965189506608 1.9571402985124502 27.25629716966573 1 1 0
1162 117 3 0.404798 5.28813590331721 3.1438589890691944 27.072750101395595 1 1 0
825 83 8 -0.358962 0.5016411874366754 12.234545466224178 23.659214672460724 1 0 0
1166 117 2 -0.091672 3.765271957221237 1.5137670132264103 26.289888070044604 1 1 0
1427 143 5 0.404798 2.5205031931134134 11.978500132467163 31.662621587448644 1 0 0
824 83 4 0.404798 0.6725419655977942 12.780886158612065 22.66750913137449 1 0 0
705 71 8 -0.358962 0.7830322005771105 6.689072358990298 24.037828768880964 1 0 0
1307 131 5 0.404798 2.475214451476594 6.041376729127024 31.60516697244503 1 0 0
685 69 8 -0.358962 5.409317638038778 6.174817016748896 29.23122226929321 1 0 0
805 81 8 -0.358962 5.126133509129323 12.655718391655807 29.019857152565553 1 0 0
1306 131 2 -0.091672 1.8944984944866716 7.307123048404792 31.417504558339456 1 0 0
759 76 9 -0.358962 7.666711005490493 12.709441608965887 25.676654181212676 0 0 0
1216 122 2 -0.091672 7.0184323141901555 4.31349786070347 31.470763713299323 0 0 0
735 74 8 -0.358962 5.138482566855945 11.050378075701548 23.400133290540715 0 0 0
1164 117 4 0.404798 4.980507914327414 1.04820978438654 28.311714153135494 1 1 0
1182 119 3 0.404798 0.11554658189030557 2.78045590999967 21.619100945127084 1 1 0
1338 134 6 0.404798 7.0627861826122365 9.886329400937663 30.52826824648847 0 0 0
1453 146 7 -0.358962 4.942309008305349 13.965817169330919 31.986008967447585 0 0 0
1220 122 10 -0.358962 7.8993896141964095 2.809011314671255 29.531844965267698 0 0 0
1217 122 5 0.404798 7.735845072681573 5.60112411418302 31.489768600595532 0 0 0
1421 143 1 -0.091672 0.6419121749664086 13.44375100164108 31.91878601582773 1 0 0
1781 179 1 -0.091672 0.6872324787099845 1.5607193956211876 32.11541831306268 1 1 0
1337 134 5 0.404798 7.56871900223722 11.818220888090892 31.891871095853972 0 0 0
639 64 9 -0.358962 8.121714788355597 6.45304910125415 26.765898802363303 0 0 0
1165 117 8 -0.358962 5.370320110368307 0.3442610895871568 29.16178756894827 1 1 0
1339 134 9 -0.358962 8.104691920485722 12.816335713190423 32.14295888584895 0 0 0
1301 131 1 -0.091672 0.8868500266580422 7.731463656266016 32.21339899526419 1 0 0
1333 134 7 -0.358962 4.934823440080156 7.862565762560771 32.21777410646605 0 0 0
1213 122 7 -0.358962 5.011925702252814 1.550782182633957 32.18169220474475 0 0 0
1695 170 8 -0.358962 5.762829664815017 29.131001677735277 2.0071834773471338 0 0 1
1545 155 8 -0.358962 0.2252745394762363 18.05429169308229 2.2699068270874956 1 0 1
252 26 3 0.404798 5.413037655747935 15.327913034053086 10.023623127996702 0 0 0
1769 177 9 -0.358962 2.544048365015209 28.1689484124305 4.395264095660686 1 0 1
1793 180 7 -0.358962 0.6523596408178981 26.013779109048176 4.931786140735908 1 0 1
1665 167 8 -0.358962 0.2326869552177263 24.688054769398224 2.162973233813752 1 0 1
1544 155 4 0.404798 0.3206312676539186 18.48315153920517 1.2051491715547291 1 0 1
372 38 3 0.404798 5.488444703161478 20.87946375472413 10.323929688742133 0 0 0
341 35 1 -0.091672 0.7428776088058655 19.586366274309782 10.720772524749583 1 0 0
466 47 2 -0.091672 1.797663933750805 24.719611545706126 9.816035726851927 1 0 0
348 35 6 0.404798 1.78974541669171 19.75208870991375 8.562848051298603 1 0 0
350 35 10 -0.358962 2.051471238708052 20.3113424873193 7.58428407291471 1 0 0
251 26 1 -0.091672 6.134109067379316 16.544846770304673 10.339841263523411 0 0 0
347 35 5 0.404798 2.2721237051152814 17.911571346611343 10.010738458114046 1 0 0
1403 141 7 -0.358962 5.690465506594685 15.906565987274083 4.756304697659711 1 0 1
258 26 6 0.404798 7.54393385734975 16.41115826232686 8.354590266132416 0 0 0
468 47 6 0.404798 2.08078408570117 25.56669348676753 8.66137314043823 1 0 0
470 47 10 -0.358962 2.2171499867637547 26.252187636098036 7.705567923998012 1 0 0
1529 153 9 -0.358962 2.6153730789627585 17.021694341771344 4.5599266242072405 1 0 1
1649 165 9 -0.358962 2.8800705177171193 22.675945133698875 5.409615296067195 1 0 1
349 35 9 -0.358962 2.805190373183752 16.853115075058742 10.188598828593612 1 0 0
1528 153 6 0.404798 3.3329682935326588 20.108581288938 3.090021833791886 1 0 1
1530 153 10 -0.358962 3.038345235705059 20.491713135252667 2.010168456721549 1 0 1
1648 165 6 0.404798 3.5039005351155588 25.36410983741059 3.3368694991490995 1 0 1
1650 165 10 -0.358962 3.2214852125633633 25.849725228315947 2.2907799585932627 1 0 1
1521 153 1 -0.091672 4.618786820358902 19.73703365775448 5.1793749240318085 1 0 1
1522 153 3 0.404798 5.398872899971837 20.871355345853605 5.000772836786635 1 0 1
1524 153 4 0.404798 4.863862062638728 18.752111786308863 6.195778278428889 1 0 1
1526 153 2 -0.091672 3.6621103912566353 19.398315436904536 4.3161465388077875 1 0 1
1527 153 5 0.404798 3.042530393064406 18.115826731913934 4.4041381106119335 1 0 1
1641 165 1 -0.091672 4.705279363288838 25.52204835165252 5.400476459461442 1 0 1
1642 165 3 0.404798 5.383850023417448 26.662540604030852 5.013025128499602 1 0 1
1644 165 4 0.404798 5.111994809205925 24.927498159525992 6.5999670577142995 1 0 1
1646 165 2 -0.091672 3.862424251010285 24.875441981951845 4.573660367149119 1 0 1
1647 165 5 0.404798 3.234418255104058 23.68552364629258 4.995045179874077 1 0 1
467 47 5 0.404798 2.4828785214173155 23.529379862957242 9.903805743627037 1 0 0
492 50 3 0.404798 5.55877314845731 26.8216384640108 10.6577966767867 0 0 0
1525 153 8 -0.358962 5.129251644303095 17.900024910445595 6.949960619868746 1 0 1
1645 165 8 -0.358962 5.50788407905835 24.376627452852734 7.562192656906345 1 0 1
1767 177 5 0.404798 2.9280067033759924 29.238174514006715 4.386627005957929 1 0 1
589 59 9 -0.358962 2.8412130485900624 28.48436385915909 10.360027097460048 1 0 0
346 35 2 -0.091672 1.5360482846343926 19.079259645173344 9.759754008223021 1 0 0
256 26 2 -0.091672 7.155392081605479 17.11071134669774 9.591860825375683 0 0 0
1694 170 4 0.404798 5.995700677033239 28.383319964742746 1.162771494739223 0 0 1
1454 146 4 0.404798 5.736653999543278 17.089455410470933 0.9774531081042909 0 0 1
1455 146 8 -0.358962 5.441426450522688 17.775518675941093 1.8764709185990602 0 0 1
1574 158 4 0.404798 5.93712210288743 22.68424998263529 1.1078994009362435 0 0 1
1575 158 8 -0.358962 5.6998863305206715 23.13980723925969 2.107243441797275 0 0 1
1402 141 3 0.404798 5.26975076682654 14.82630332558919 4.941270960767833 1 0 1
378 38 6 0.404798 7.524610717266693 21.78105120086798 8.676608436526053 0 0 0
376 38 2 -0.091672 7.1090915980081 22.559380738056248 9.782187641171987 0 0 0
1523 153 7 -0.358962 6.032936928410278 21.851585354775615 4.931790889506571 1 0 1
1643 165 7 -0.358962 5.8332027785288245 27.672439773168048 4.669594945032799 1 0 1
496 50 2 -0.091672 7.114057714888253 28.298789447076746 9.695166178875072 0 0 0
500 50 10 -0.358962 7.253859191355977 26.997191330978648 7.4367967899536405 0 0 0
371 38 1 -0.091672 6.143788795832464 22.0924810726967 10.558442003033717 0 0 0
498 50 6 0.404798 7.136610002683148 27.618768929383844 8.446108995870878 0 0 0
377 38 5 0.404798 7.741564453039826 23.78962576226386 10.015526050195085 0 0 0
493 50 7 -0.358962 4.941273052839347 25.883207825608356 10.47973359834247 0 0 0
260 26 10 -0.358962 7.7382595323231 15.829573015229618 7.34258055444735 0 0 0
1664 167 4 0.404798 0.5742973154290469 25.21447032603043 1.191686726490343 1 0 1
1479 148 9 -0.358962 8.13073417546844 19.08117199818322 4.982677691175 0 0 1
373 38 7 -0.358962 4.9762175120928 19.814478738280773 10.104943887141834 0 0 0
380 38 10 -0.358962 7.990505965351805 21.262439973802874 7.722053246489472 0 0 0
257 26 5 0.404798 7.940167879888363 18.270387066880364 9.845511166609375 0 0 0
469 47 9 -0.358962 3.0146471467186244 22.481397720140897 10.049362539944072 1 0 0
1692 170 3 0.404798 5.683698368158897 26.271920972151225 0.09972170067758356 0 0 1
491 50 1 -0.091672 6.319474669237239 27.945300195032893 10.73690519359012 0 0 0
342 35 3 0.404798 0.1980023395692815 20.885115077073607 10.525095472098203 1 0 0
1552 156 3 0.404798 0.28627679814157625 15.288528937427976 4.933376450768317 1 0 1
1691 170 1 -0.091672 6.411521211866722 27.48782406615683 0.1968652821105483 0 0 1
1599 160 9 -0.358962 7.931585449247981 24.650735203208487 4.960236251992894 0 0 1
462 47 3 0.404798 0.19188544508084598 26.383092122717667 10.594364499979603 1 0 0
587 59 5 0.404798 2.3429654441706513 29.495754429107965 10.084340259412187 1 0 0
461 47 1 -0.091672 0.8530973965445144 25.08577575323424 10.679863605472104 1 0 0
941 95 1 -0.091672 0.702724591080999 19.333954722553322 21.431118086935058 1 0 0
495 50 8 -0.358962 5.748186070458016 29.304175513085102 12.83318213728787 0 0 0
1097 110 5 0.404798 7.503359591280359 29.47201834980757 20.577042117720165 0 0 0
978 98 6 0.404798 7.747670024485399 21.493003367051582 19.384036020646512 0 0 0
1092 110 3 0.404798 5.476319531619177 26.324935927849566 20.84158505812617 0 0 0
465 47 8 -0.358962 0.2854221419208627 23.876227497981144 12.836110049811964 1 0 0
473 48 7 -0.358962 0.6660506434395256 19.799540863454208 15.983056228370286 1 0 0
851 86 1 -0.091672 6.134633686553021 16.05278657900954 21.205921577615527 0 0 0
1098 110 6 0.404798 7.6251760977457295 27.422574649703595 19.227315211716395 0 0 0
971 98 1 -0.091672 6.371484942527613 21.586463999487417 21.34751292444897 0 0 0
948 95 6 0.404798 2.1080736132726763 19.73988257916387 19.46054967219549 1 0 0
950 95 10 -0.358962 2.4078649003041375 20.328418464215122 18.481275250749977 1 0 0
949 95 9 -0.358962 2.5910336284148707 16.616709318802023 21.076113042321346 1 0 0
494 50 4 0.404798 6.025511434115089 28.69808086983061 11.881546782816082 0 0 0
856 86 2 -0.091672 7.307638613507811 16.25517875168089 20.664711339908205 0 0 0
977 98 5 0.404798 7.87306653990528 23.419936478920494 20.929947140514326 0 0 0
1068 107 6 0.404798 2.3456923864491084 25.201913656871234 19.357858822534592 1 0 0
1070 107 10 -0.358962 2.7369467888269314 25.855064138207943 18.43479666681655 1 0 0
329 33 9 -0.358962 2.3548932637997786 16.706251061532885 14.825083505340881 1 0 0
449 45 9 -0.358962 2.420067073870677 22.629116840388964 15.45991127882671 1 0 0
464 47 4 0.404798 0.6342149378572944 24.380435466560396 11.834347697233497 1 0 0
328 33 6 0.404798 3.4803437529362617 19.81943424501653 13.784489740739033 1 0 0
330 33 10 -0.358962 3.502305416087278 20.524605518110288 12.895557277807304 1 0 0
448 45 6 0.404798 3.500453045101112 25.650212217169187 14.104120154324466 1 0 0
450 45 10 -0.358962 3.10765668684065 26.249698410693014 13.204599663827395 1 0 0
321 33 1 -0.091672 4.363165856126366 19.30801410225091 15.882804067848285 1 0 0
322 33 3 0.404798 5.118190161486692 20.505602326871507 15.849108257424763 1 0 0
324 33 4 0.404798 4.606725244004518 18.446078168418936 17.022869137581594 1 0 0
326 33 2 -0.091672 3.645210996908162 18.932699319350977 14.830491686668772 1 0 0
327 33 5 0.404798 2.9000071756878483 17.751844061659664 14.795313203855654 1 0 0
441 45 1 -0.091672 4.8275194049184424 25.195262424910144 16.002209969142207 1 0 0
442 45 3 0.404798 5.423606847232726 26.451556949697707 15.977203037797148 1 0 0
444 45 4 0.404798 5.214926551971269 24.234971734902835 17.028293594003337 1 0 0
446 45 2 -0.091672 3.8624057902855364 24.80485497308515 15.200495109697576 1 0 0
447 45 5 0.404798 3.0967836929837307 23.586190151239876 15.38161811141051 1 0 0
1093 110 7 -0.358962 5.069988590515485 25.207367873090433 20.685797748646568 0 0 0
203 21 7 -0.358962 5.754661099975543 15.446941334777495 15.401517352631366 1 0 0
325 33 8 -0.358962 5.03920059826177 17.705565190036484 17.82973439612043 1 0 0
445 45 8 -0.358962 5.540385372447068 23.493908404165232 17.868144868982423 1 0 0
946 95 2 -0.091672 1.7229109681792418 19.00920208854884 20.623256161441265 1 0 0
345 35 8 -0.358962 0.3232088689134839 18.32002108262535 12.950824267836019 1 0 0
976 98 2 -0.091672 7.311219339928521 22.152335878828673 20.624243845577176 0 0 0
1066 107 2 -0.091672 1.8418080486527344 24.508706120100985 20.564755521681928 1 0 0
980 98 10 -0.358962 8.082263772207698 20.848645568014263 18.46540834757964 0 0 0
254 26 4 0.404798 5.8098930148974715 17.210791081013507 11.591303237246496 0 0 0
255 26 8 -0.358962 5.572114183917098 17.74456694924463 12.598390379646979 0 0 0
374 38 4 0.404798 5.941540084956602 22.784649772202982 11.729836058228752 0 0 0
375 38 8 -0.358962 5.729410709667241 23.35245495754098 12.687849318607144 0 0 0
1189 119 9 -0.358962 2.5019429636931307 28.3132072861829 20.41891188024897 1 0 0