LAMMPS data file via write_data, version 29 Sep 2021, timestep = 1000000

2000 atoms
10 atom types
1800 bonds
9 bond types
2000 angles
10 angle types
2400 dihedrals
12 dihedral types

0 29.3823 xlo xhi
0 30.9925 ylo yhi
0 36.0826010580719 zlo zhi
1.89774329612872e-15 2.87049689845316 2.0406352745682e-15 xy xz yz

Masses

1 12.01
2 12.01
3 12.01
4 12.01
5 12.01
6 12.01
7 14.01
8 14.01
9 14.01
10 14.01

Pair Coeffs # lj/cut/coul/long

1 0.076 3.55
2 0.076 3.55
3 0.066 3.3
4 0.066 3.3
5 0.066 3.3
6 0.066 3.3
7 0.17 3.2
8 0.17 3.2
9 0.17 3.2
10 0.17 3.2

Bond Coeffs # harmonic

1 400 1.426
2 400 1.426
3 400 1.426
4 400 1.426
5 549 1.34
6 650 1.16
7 650 1.16
8 650 1.16
9 650 1.16

Angle Coeffs # harmonic

1 70 116.8
2 70 116.8
3 70 121.6
4 70 121.6
5 70 121.6
6 70 121.6
7 70 178.9
8 70 178.9
9 70 178.9
10 70 178.9

Dihedral Coeffs # opls

1 0 0 0 0
2 0 0 0 0
3 0 0 0 0
4 0 0 0 0
5 0 0 0 0
6 0 0 0 0
7 0 0 0 0
8 0 0 0 0
9 0 14 0 0
10 0 14 0 0
11 0 14 0 0
12 0 14 0 0

Atoms # full

336 34 2 -0.091672 9.451540671891756 1.2816160434924277 5.682590982806791 0 1 0
1605 161 8 -0.358962 5.799056526104438 1.3236824015152902 0.26818312009308914 0 0 1
20 2 10 -0.358962 10.684881907057271 9.206062983771195 4.383749727146134 0 0 0
76 8 2 -0.091672 2.4470129085405588 7.2132769952126266 5.343773330318545 1 0 0
396 40 2 -0.091672 2.0964212273191984 1.2175482666864852 5.511988475110109 1 1 0
12 2 3 0.404798 8.64764099334174 6.001493533358848 4.2472232647652906 0 0 0
13 2 7 -0.358962 8.292354520665734 5.806996704669411 3.161990784967819 0 0 0
1682 169 3 0.404798 6.848078311937671 9.026594602023868 3.240127114219201 0 0 1
1603 161 7 -0.358962 6.481921179888228 2.5134334927832214 4.567383764918534 0 0 1
11 2 1 -0.091672 9.02738472750415 6.232676783512826 5.559069675465997 0 0 0
14 2 4 0.404798 8.646872437458589 5.152573070976086 6.457970568396604 0 0 0
15 2 8 -0.358962 8.37014545580771 4.262314991451654 7.148910522019819 0 0 0
71 8 1 -0.091672 1.597876688845006 6.149932694145597 5.1630143310612775 1 0 0
391 40 1 -0.091672 1.2780768654576509 0.18095202068067742 5.260558417460574 1 1 0
18 2 6 0.404798 10.344680109042882 8.339561082087192 5.080728970099504 0 0 0
79 8 9 -0.358962 3.558261067118735 7.403648165103485 7.6387506031455725 1 0 0
155 16 8 -0.358962 1.1874487593263576 10.26247474815121 6.914469971648846 1 0 0
4 1 4 0.404798 6.345576899012594 2.072115839068411 8.471847840129396 0 0 0
399 40 9 -0.358962 3.0251606170528826 1.6032067161416308 7.827126637420708 1 1 0
1604 161 4 0.404798 5.737280864811451 2.0743757175436635 1.1820473024223872 0 0 1
104 11 4 0.404798 13.600026049476172 8.267969015711564 8.445699668551086 0 0 0
74 8 4 0.404798 1.3023382753010508 5.033630035421094 6.083583443187682 1 0 0
24 3 4 0.404798 13.92767736051636 1.9794733676153222 8.057191572603134 0 0 0
78 8 6 0.404798 2.6302321927790397 8.289015229319158 4.356491240778861 1 0 0
80 8 10 -0.358962 2.6875627136660345 9.046668781176725 3.4904083006128253 1 0 0
398 40 6 0.404798 2.3463562935652713 2.174209022284038 4.53371180686407 1 1 0
400 40 10 -0.358962 2.4747839296782956 2.933883883822734 3.653191518119258 1 1 0
1999 200 9 -0.358962 2.5167853982169075 1.1960135537016245 0.702468797311783 1 1 1
77 8 5 0.404798 3.059304836166133 7.410340879542446 6.589261087123302 1 0 0
397 40 5 0.404798 2.608091831442439 1.478020747735861 6.789834475891249 1 1 0
1601 161 1 -0.091672 5.540659867626692 3.010909195774444 2.21222420681639 0 0 1
1681 169 1 -0.091672 6.0300409277381375 9.19344344088276 2.035145163596585 0 0 1
1602 161 3 0.404798 6.086023281278922 2.7803213389592276 3.4890941471448667 0 0 1
7 1 5 0.404798 5.127119517532551 4.525965443506049 7.694168965245564 0 0 0
1606 161 2 -0.091672 4.974619430718176 4.184703316926354 1.9059353567029678 0 0 1
25 3 8 -0.358962 14.323350753848906 1.1979593078315793 7.309699383918408 0 0 0
29 3 9 -0.358962 11.771157143311656 4.478708762966624 6.346356251230618 0 0 0
19 2 9 -0.358962 10.682599857085922 7.230382677870214 8.413795780746613 0 0 0
1608 161 6 0.404798 4.808857653301821 5.280161135649658 2.786490630927637 0 0 1
1610 161 10 -0.358962 4.762256488851685 6.223055458273997 3.53191784714954 0 0 1
1683 169 7 -0.358962 7.520564599746247 8.998943235093275 4.160523905225509 0 0 1
9 1 9 -0.358962 4.7374528442991455 4.7426207470047475 6.626463077172807 0 0 0
1702 171 3 0.404798 13.571854920839577 9.224049648112484 3.2167124287929663 0 0 1
5 1 8 -0.358962 6.455194156061017 1.2045270130582901 7.727503750954893 0 0 0
1619 162 9 -0.358962 9.368225893926478 8.133156276822808 1.108819105266932 0 0 1
16 2 2 -0.091672 9.821266458325642 7.2642901742505215 5.981198919807811 0 0 0
85 9 8 -0.358962 6.564820748398091 7.503260066739849 7.714020597447271 0 0 0
1684 169 4 0.404798 5.8823495221097 8.06449705675508 1.1165718122595956 0 0 1
337 34 5 0.404798 9.914666201081225 1.5350563921642861 6.9960906376005205 0 1 0
1939 194 9 -0.358962 10.324850518310734 1.2968250997309623 0.6099857006970535 0 1 1
1630 163 10 -0.358962 12.055234951702625 5.9562511981219535 3.181263655075129 0 0 1
338 34 6 0.404798 9.709214271825235 2.3177195748038093 4.657541558715203 0 1 0
72 8 3 0.404798 1.0456368178424909 5.9710211623277205 3.8543957689902193 1 0 0
17 2 5 0.404798 10.264030693658324 7.3764945152595285 7.31334298912072 0 0 0
1628 163 6 0.404798 12.259154542419601 5.067868851613414 2.408912735057928 0 0 1
340 34 10 -0.358962 9.881571824253578 3.1823050547613083 3.8962512476406745 0 1 0
339 34 9 -0.358962 10.331342318061672 1.6910953912048745 8.113167102794915 0 1 0
1623 163 7 -0.358962 13.789869041818756 2.4083228859722596 4.315349903670771 0 0 1
1622 163 3 0.404798 13.554515109159295 2.634062867408112 3.217025681773201 0 0 1
1703 171 7 -0.358962 13.94344986715634 8.879365129648114 4.253678617041727 0 0 1
1685 169 8 -0.358962 5.639587482371254 7.148449457145666 0.4867767236538035 0 0 1
1621 163 1 -0.091672 13.167246470871497 2.8761070900555463 1.868123860484072 0 0 1
1701 171 1 -0.091672 13.024015150388951 9.430327351100736 1.921116592584767 0 0 1
1704 171 4 0.404798 13.248998599890207 8.438548788436384 0.9198186522268244 0 0 1
1679 168 9 -0.358962 2.752900192335077 7.365133332658685 0.4893741851800521 1 0 1
27 3 5 0.404798 12.212409507895542 4.248382754090489 7.40435972820355 0 0 0
1626 163 2 -0.091672 12.548737848517808 4.024677360592228 1.5272635260782559 0 0 1
1624 163 4 0.404798 13.414993430193226 1.8270460971325875 0.9472068972996324 0 0 1
105 11 8 -0.358962 13.86442577399127 7.4615481774763355 7.610117761906536 0 0 0
1705 171 8 -0.358962 13.37846535476546 7.576693822531108 0.20538499031620996 0 0 1
75 8 8 -0.358962 0.9130733118826222 4.112141784759062 6.680964827716251 1 0 0
84 9 4 0.404798 6.483451711160537 8.27827988270582 8.57130821008857 0 0 0
1625 163 8 -0.358962 13.550314593760355 1.04029836685796 0.11204668953870395 0 0 1
73 8 7 -0.358962 0.6045445160663623 5.749703403060297 2.805896452516031 1 0 0
331 34 1 -0.091672 8.911203828307459 0.07781458633582139 5.3798318440500505 0 1 0
1607 161 5 0.404798 4.482449798847694 4.293101737873832 0.5832597729140951 0 0 1
26 3 2 -0.091672 12.706883217473333 4.022302428524059 8.720624399807186 0 0 0
21 3 1 -0.091672 13.499426928044034 3.016742852886415 8.987088873081566 0 0 0
1627 163 5 0.404798 12.137280028183936 4.245170268337805 0.11147647256929895 0 0 1
1615 162 8 -0.358962 7.785411700278702 4.4465197220269195 0.1231840090022195 0 0 1
6 1 2 -0.091672 5.602848710965769 4.316855190730022 8.988382681447185 0 0 0
739 74 9 -0.358962 10.700298385718117 1.1491691215264368 15.209269494275059 0 1 0
736 74 2 -0.091672 9.910999019924013 0.9066381735285327 12.757805723283592 0 1 0
476 48 2 -0.091672 2.54381013675108 7.413759199338742 12.88796321051139 1 0 0
796 80 2 -0.091672 2.557860332041479 1.3910705987452052 12.478615685462799 1 1 0
412 42 3 0.404798 9.000440562102641 5.989649881810002 11.125142318236616 0 0 0
413 42 7 -0.358962 8.547148041146894 6.085927759756911 10.01791850145515 0 0 0
485 49 8 -0.358962 6.907602730734153 7.160840406770115 14.473731017003356 0 0 0
416 42 2 -0.091672 10.219958881581247 6.894075460733743 12.968397652704533 0 0 0
101 11 1 -0.091672 13.392799380235527 9.299855104917937 9.339289958873787 0 0 0
23 3 7 -0.358962 14.287042269706406 2.745714937381645 11.40115687115605 0 0 0
3 1 7 -0.358962 6.804256045147968 2.9854883876820604 11.761112206957945 0 0 0
472 48 3 0.404798 1.6491338918141276 6.0760933695310575 11.121548221133716 1 0 0
2 1 3 0.404798 6.639383104871176 3.034892792150396 10.645737618178787 0 0 0
411 42 1 -0.091672 9.504972505492809 5.939308749629652 12.476437545615791 0 0 0
414 42 4 0.404798 9.042289584186681 4.860191958128557 13.235937111071944 0 0 0
415 42 8 -0.358962 8.690256862828349 3.9636845379500945 13.843350701340993 0 0 0
471 48 1 -0.091672 1.8992656433955846 6.299545484822459 12.524446772426494 1 0 0
473 48 7 -0.358962 1.4304562231954843 6.03431939557857 10.02556038613753 1 0 0
479 48 9 -0.358962 3.407781282874355 7.9315297075196565 15.305488901617931 1 0 0
799 80 9 -0.358962 3.590332737788475 1.6000047277530531 14.871046073289895 1 1 0
484 49 4 0.404798 6.8002805701832 8.048468680467083 15.231568226595565 0 0 0
28 3 6 0.404798 12.454433997350273 4.946763264210998 9.776589082712995 0 0 0
482 49 3 0.404798 7.244716140403644 9.017182535946356 17.43958792474571 0 0 0
873 88 7 -0.358962 1.486752156450037 6.194773607341964 17.51683000078281 1 0 0
420 42 10 -0.358962 10.74462371493714 8.787341024879717 11.361932622764037 0 0 0
478 48 6 0.404798 2.9874291125203394 8.437366357258416 11.960610868258053 1 0 0
480 48 10 -0.358962 3.437784691469677 9.173399487103346 11.20733166796265 1 0 0
798 80 6 0.404798 2.955569453742627 2.374402885521908 11.494618722879528 1 1 0
800 80 10 -0.358962 3.269991519121674 3.154564619069963 10.735014799110578 1 1 0
422 43 3 0.404798 14.50079554019607 2.752326921505869 17.9637461792654 0 0 0
738 74 6 0.404798 10.133164315808566 1.932615716594793 11.807744129667414 0 1 0
477 48 5 0.404798 2.9902667346801106 7.658185189342159 14.20354371015083 1 0 0
797 80 5 0.404798 3.131093591038728 1.5381462679245521 13.811795462739898 1 1 0
424 43 4 0.404798 14.201232444944367 1.7570267778086088 15.71073662868377 0 0 0
401 41 1 -0.091672 6.586716980285502 2.969247881820883 16.026102384566833 0 0 0
481 49 1 -0.091672 6.605410842034166 9.131820908223006 16.188756630221167 0 0 0
406 41 2 -0.091672 5.868707017048177 4.085430771060882 15.760965296354415 0 0 0
407 41 5 0.404798 5.250938860255588 4.410826655383874 14.600948057429772 0 0 0
10 1 10 -0.358962 5.052127746408285 6.192596704207522 10.80710592309225 0 0 0
408 41 6 0.404798 5.579932112498328 5.01957777480793 16.715882148284493 0 0 0
405 41 8 -0.358962 6.763481313026398 0.9646614731243496 14.388190135677451 0 0 0
502 51 3 0.404798 14.148372637191382 8.997186394893832 17.440928852035317 0 0 0
813 82 7 -0.358962 8.735280586147423 5.596027551931161 17.138341445696167 0 0 0
83 9 7 -0.358962 7.416540107811189 9.021885207927788 11.77347697047614 0 0 0
82 9 3 0.404798 7.021895809160924 9.170405927642214 10.704791884200988 0 0 0
409 41 9 -0.358962 4.779355522673965 4.893796510565155 13.671861589048051 0 0 0
404 41 4 0.404798 6.70085778213578 1.9086500582719939 15.026180363781165 0 0 0
740 74 10 -0.358962 10.325958074736864 2.7725272480301113 11.054683185047145 0 1 0
429 43 9 -0.358962 12.261417188731603 4.156024650472037 13.714013115487585 0 0 0
419 42 9 -0.358962 10.99201019315187 6.936144714169362 15.39207390999199 0 0 0
417 42 5 0.404798 10.629455775753033 6.9581680134927915 14.348374576506425 0 0 0
418 42 6 0.404798 10.449135421306927 7.976857985599241 12.130163249435599 0 0 0
737 74 5 0.404798 10.30208643993209 1.0981425626246544 14.106750867243374 0 1 0
505 51 8 -0.358962 13.89433074287219 7.57960405376968 14.266284954977055 0 0 0
475 48 8 -0.358962 1.3985300218479115 4.363888263668101 14.206244636294434 1 0 0
421 43 1 -0.091672 14.104167904010202 2.902032584563871 16.553691605150526 0 0 0
474 48 4 0.404798 1.6425041434963275 5.1611712930073566 13.388749371324812 1 0 0
501 51 1 -0.091672 13.47045570628446 9.20673271781905 16.217878823121616 0 0 0
22 3 3 0.404798 13.96199224404966 2.87898790991158 10.294963878070208 0 0 0
426 43 2 -0.091672 13.568576266545154 3.9911560624694014 16.002999563559033 0 0 0
427 43 5 0.404798 12.836050633017683 4.001222261214557 14.715260719902135 0 0 0
504 51 4 0.404798 13.704815971107678 8.319288234327425 15.125122972961815 0 0 0
30 3 10 -0.358962 12.362873798562696 5.756561844413612 10.622888165925644 0 0 0
428 43 6 0.404798 13.275104326770588 5.064887455179034 16.840654406907383 0 0 0
425 43 8 -0.358962 14.282750134687765 0.86131168174648 14.992862340822683 0 0 0
103 11 7 -0.358962 14.392278140168148 9.022663082629387 11.744361890966118 0 0 0
102 11 3 0.404798 13.934001944674835 9.14099751954579 10.672985524255472 0 0 0
8 1 6 0.404798 5.355425616257825 5.343362447195637 10.038049918994762 0 0 0
410 41 10 -0.358962 5.2932792468506245 5.820229747062884 17.495166635635808 0 0 0
792 80 3 0.404798 1.4631382355873692 0.003783661967772437 10.824443041053927 1 1 0
1 1 1 -0.091672 6.232334267528666 3.169748999038518 9.357565129892873 0 0 0
430 43 10 -0.358962 13.16973200157098 5.975746058925018 17.577300625472272 0 0 0
81 9 1 -0.091672 6.331917778918897 9.317781176141496 9.496236516126418 0 0 0
730 73 10 -0.358962 5.735479947226516 0.15079820232776356 17.88995504418473 0 1 0
350 35 10 -0.358962 12.503242326533497 0.07696807455208408 10.640002344182912 0 1 0
791 80 1 -0.091672 1.8369993378488405 0.2673208185466068 12.159628468708096 1 1 0
402 41 3 0.404798 7.1627718946744325 2.8880779187516703 17.244302991009327 0 0 0
750 75 10 -0.358962 12.499004171605517 0.04397381971259708 17.589072410244054 0 1 0
820 82 10 -0.358962 10.752458296688589 8.848352423857959 17.913676528512845 0 0 0
1218 122 6 0.404798 11.363156373269035 8.15732028691982 25.911056681112314 0 0 0
876 88 2 -0.091672 2.9684669552703005 7.385220980002906 20.36537273861442 1 0 0
1196 120 2 -0.091672 3.304631409606097 1.1109665156400954 20.044480896939955 1 1 0
1212 122 3 0.404798 10.158321451162529 5.73178458736677 25.20118993763214 0 0 0
1213 122 7 -0.358962 9.778453891956442 5.54476268210534 24.074754497455388 0 0 0
874 88 4 0.404798 1.9900045293930346 5.219020623416384 20.75671476490251 1 0 0
882 89 3 0.404798 7.7438240262984275 9.09338337048633 25.064175266970885 0 0 0
811 82 1 -0.091672 9.997103572301656 5.808082489853705 19.352447172983908 0 0 0
814 82 4 0.404798 9.896836278303496 4.821069761418118 20.341006426611393 0 0 0
815 82 8 -0.358962 9.896033749014633 4.167841836697904 21.272960547993243 0 0 0
1137 114 5 0.404798 11.265129990474916 1.2807717174797888 21.21442104748807 0 1 0
875 88 8 -0.358962 1.9160743041686963 4.223180132375569 21.445171495454073 1 0 0
871 88 1 -0.091672 2.227420606386832 6.324870037419482 19.932659114612804 1 0 0
812 82 3 0.404798 9.33942593437536 5.62657160503448 18.130435898771868 0 0 0
483 49 7 -0.358962 7.586763804668038 9.05349633291929 18.55051373945982 0 0 0
1136 114 2 -0.091672 10.604433094726375 1.2044895350776768 19.962197312537114 0 1 0
802 81 3 0.404798 7.884256634200267 2.968998932701666 24.875485095841956 0 0 0
879 88 9 -0.358962 4.123315408269109 7.505748574993218 22.68631035393082 1 0 0
1199 120 9 -0.358962 3.9695104448623306 1.5837283935288207 22.519834479984798 1 1 0
816 82 2 -0.091672 10.572171173958244 6.928294506116541 19.635512500497125 0 0 0
403 41 7 -0.358962 7.838295636172414 2.8849381426390783 18.200939660631345 0 0 0
423 43 7 -0.358962 14.86079781443459 2.6748262140252477 19.02917623591148 0 0 0
818 82 6 0.404798 10.640497930531225 7.991396340581824 18.714182939636004 0 0 0
1220 122 10 -0.358962 11.358110319233598 9.014003738776506 25.100243330592047 0 0 0
1540 154 10 -0.358962 11.92360770807974 2.6892572240161727 25.42482786673954 0 1 0
1273 128 7 -0.358962 1.997990380827763 6.081038176016453 24.626380662415283 1 0 0
1598 160 6 0.404798 4.026932394104611 2.2245426883266033 26.06658194039489 1 1 0
1280 128 10 -0.358962 4.549455723777091 9.272499260119801 25.74724162109804 1 0 0
1198 120 6 0.404798 3.752574468851888 2.0830638401129598 19.142219211120793 1 1 0
883 89 7 -0.358962 8.114248224301388 8.976853345137426 26.149192547899293 0 0 0
885 89 8 -0.358962 7.71220167026183 7.229202964889055 22.12954467965668 0 0 0
1600 160 10 -0.358962 4.355448906540369 3.1080771781593204 25.39384620539538 1 1 0
878 88 6 0.404798 3.3743242797801614 8.330711374286118 19.420596131152767 1 0 0
1138 114 6 0.404798 10.979206041185543 2.1795183198156476 19.01158124858306 0 1 0
503 51 7 -0.358962 14.84130656602246 8.925903339322355 18.382779409060287 0 0 0
877 88 5 0.404798 3.5515875385957996 7.434419139185316 21.695968060400478 1 0 0
1197 120 5 0.404798 3.5694331058909374 1.3808455365901482 21.436951987730033 1 1 0
801 81 1 -0.091672 7.16198322028721 3.292404330586039 23.660596028061377 0 0 0
881 89 1 -0.091672 7.285621817928927 9.279696490635382 23.7211862024193 0 0 0
806 81 2 -0.091672 6.385733275817152 4.341286951297925 23.588726184544363 0 0 0
807 81 5 0.404798 5.6458333295652 4.521766210269949 22.41376994864974 0 0 0
904 91 4 0.404798 14.775739038033535 8.13443558105223 22.64129031334284 0 0 0
808 81 6 0.404798 6.4642607706550805 5.405154562121153 24.506896732889842 0 0 0
810 81 10 -0.358962 6.664517739403783 6.247429432084176 25.307108245091268 0 0 0
803 81 7 -0.358962 8.479856817669205 2.777970183941672 25.821498753264606 0 0 0
809 81 9 -0.358962 5.033551382460696 4.741938622864549 21.449854509024124 0 0 0
804 81 4 0.404798 7.321383909701215 2.2498206469388817 22.723274316902767 0 0 0
805 81 8 -0.358962 7.319203721758632 1.5459679945793778 21.7771576959221 0 0 0
884 89 4 0.404798 7.503547871054655 8.149629922941534 22.82210007635058 0 0 0
1271 128 1 -0.091672 3.3664455520228107 6.225176244214116 26.812951540279645 1 0 0
828 83 6 0.404798 13.832293638555456 5.152334989177358 24.328961791335892 0 0 0
830 83 10 -0.358962 13.809132617319527 5.94870536368115 25.09553856473029 0 0 0
829 83 9 -0.358962 13.217275747283852 4.663293335997695 20.922418366741304 0 0 0
903 91 7 -0.358962 15.426060825783205 8.628958701234533 25.931915021454333 0 0 0
1538 154 6 0.404798 11.734318798818226 1.894851916550895 26.215100502397373 0 1 0
1139 114 9 -0.358962 11.763640786979737 1.5665303720092212 22.241190767582435 0 1 0
1278 128 6 0.404798 4.3566954664717406 8.406462381244566 26.446669222251472 1 0 0
817 82 5 0.404798 11.112377645752375 7.1820960624508245 20.976035290792527 0 0 0
824 83 4 0.404798 14.783268561526336 1.9793200810627003 22.615053113019567 0 0 0
819 82 9 -0.358962 11.581159732968999 7.442306315789292 22.022544405891498 0 0 0
825 83 8 -0.358962 14.900926556928543 1.1717607354121864 21.77282670301312 0 0 0
823 83 7 -0.358962 15.358248360419289 2.568158536314631 25.977925828427413 0 0 0
822 83 3 0.404798 15.084237191356719 2.7747813532558006 24.922339755672876 0 0 0
1191 120 1 -0.091672 2.635989450631139 0.0626154398890275 19.652415233050103 1 1 0
821 83 1 -0.091672 14.601339466310465 2.9904041713736147 23.61863117496701 0 0 0
901 91 1 -0.091672 14.528659123068287 9.149505159056087 23.579368251104775 0 0 0
902 91 3 0.404798 15.006037731185971 8.847067265031722 24.902272412354982 0 0 0
826 83 2 -0.091672 14.06286324216134 4.162271674478645 23.354052571744703 0 0 0
827 83 5 0.404798 13.632314796789803 4.448609135689162 22.037187431173145 0 0 0
905 91 8 -0.358962 14.872472267413375 7.246062751933035 21.948509419696656 0 0 0
880 88 10 -0.358962 3.810543821770535 9.048705234829296 18.554824568077702 1 0 0
872 88 3 0.404798 1.8893247393996333 6.22670758263541 18.585109967303698 1 0 0
1272 128 3 0.404798 2.636722779295816 6.117584409238116 25.582571962157896 1 0 0
906 91 2 -0.091672 13.787985264769697 10.248490225767043 23.221538314062183 0 0 0
1211 122 1 -0.091672 10.607476790769422 5.993657892570884 26.539691140042294 0 0 0
1200 120 10 -0.358962 4.067097718737546 2.882803891385537 18.411419304532618 1 1 0
1216 122 2 -0.091672 11.193029580987181 7.182627905089987 26.889563122345056 0 0 0
1596 160 2 -0.091672 3.6286860004712915 1.1183326131317755 26.90754743174319 1 1 0
1131 114 1 -0.091672 9.834155298050833 0.17532349039137493 19.72206807643941 0 1 0
1132 114 3 0.404798 9.28128256003096 0.028455148654444703 18.40928993884526 0 1 0
1130 113 10 -0.358962 6.513797602302244 0.004918614898950165 25.07397696498548 0 1 0
1140 114 10 -0.358962 11.22137993859068 2.822926091456794 18.127701559539698 0 1 0
1203 121 7 -0.358962 8.836419296966495 2.7687025638234766 33.25226882195669 0 0 0
1672 168 3 0.404798 2.8233910453747906 5.800814262237732 32.898534267303 1 0 0
1202 121 3 0.404798 8.290910032929474 2.7524402418152545 32.23508909961304 0 0 0
1936 194 2 -0.091672 12.132626854084876 0.9986447748806896 34.351886748026885 0 1 0
1676 168 2 -0.091672 4.2759047400914065 7.0871127626069175 34.39203319519206 1 0 0
1285 129 8 -0.358962 8.359427906816192 7.463130800414341 29.142452434357327 0 0 0
1284 129 4 0.404798 8.005253576424312 8.305483769713865 29.891770279865426 0 0 0
1996 200 2 -0.091672 4.551053780198691 0.9223953529579485 34.31451643268436 1 1 0
1612 162 3 0.404798 10.51149913479951 6.227911040337543 33.077868286787265 0 0 0
1613 162 7 -0.358962 10.157844614653383 6.047780430986065 32.01614026677963 0 0 0
1609 161 9 -0.358962 6.96646413092281 4.288165810474112 35.53837461533854 0 0 0
1295 130 8 -0.358962 9.880149867057561 10.13467914210078 28.420749806992763 0 0 0
1215 122 8 -0.358962 10.005367745644605 4.237144245465004 28.33372448010598 0 0 0
1611 162 1 -0.091672 11.022200272603719 6.320164861611157 34.43779913287084 0 0 0
1614 162 4 0.404798 10.925804072569079 5.262515523018482 35.45066392372468 0 0 0
1938 194 6 0.404798 12.288008580502972 2.1073862656427598 33.501223269362974 0 1 0
1302 131 3 0.404798 15.211454507836754 9.05689068560724 32.09007973070979 0 0 0
1671 168 1 -0.091672 3.5256953207515345 6.004502768273403 34.12899713330276 1 0 0
1214 122 4 0.404798 10.307898568688746 5.019738293356889 27.565034238505234 0 0 0
1205 121 8 -0.358962 7.925717965475941 0.7438151208740045 29.455302830101836 0 0 0
1616 162 2 -0.091672 11.636107351133983 7.454482130081526 34.721730505158085 0 0 0
1282 129 3 0.404798 8.345507422994235 9.292773654045348 32.09748368622819 0 0 0
1279 128 9 -0.358962 5.0929921466839225 7.315290310023871 29.58259429942418 1 0 0
1599 160 9 -0.358962 4.237608874819433 1.4112761747044247 29.353314492228634 1 1 0
1204 121 4 0.404798 7.893201903294116 1.6799494066316598 30.136373855489907 0 0 0
1235 124 8 -0.358962 16.93429951425626 4.410367958123177 28.22884308220391 0 0 0
1305 131 8 -0.358962 15.341984689524226 7.31203067851715 29.131495956258036 0 0 0
1678 168 6 0.404798 4.48582904754496 8.12629629583186 33.46482733834306 1 0 0
1680 168 10 -0.358962 4.631009289952122 9.025646795709553 32.664303553006 1 0 0
1998 200 6 0.404798 4.868119999983238 1.8846230677784672 33.395403965270155 1 1 0
2000 200 10 -0.358962 5.084553509465489 2.741118013211743 32.6489408273029 1 1 0
1675 168 8 -0.358962 3.5534003792354594 4.134899763513022 35.86075789709659 1 0 0
1937 194 5 0.404798 12.726822469766624 1.2079303091992988 35.62007235024609 0 1 0
1277 128 5 0.404798 4.6420987287300095 7.27848921486427 28.505407685757792 1 0 0
1618 162 6 0.404798 11.86099694645087 8.487971969667635 33.7432302577237 0 0 0
1223 123 7 -0.358962 15.843524175193558 2.477803544633443 33.04362495569893 0 0 0
1597 160 5 0.404798 3.9081341642713703 1.271377059087594 28.226917939389484 1 1 0
1201 121 1 -0.091672 7.679507182424922 2.745722283212508 30.989764230867376 0 0 0
1281 129 1 -0.091672 7.727678185035856 9.350084082155398 30.82652408294535 0 0 0
1677 168 5 0.404798 5.02008448456481 7.27612278577601 35.610608337903834 1 0 0
1206 121 2 -0.091672 6.976325706895574 3.8097712114182087 30.635663311372973 0 0 0
1207 121 5 0.404798 6.420501804877178 3.893418272358416 29.347131360733883 0 0 0
1208 121 6 0.404798 6.900609433960005 4.972771641297929 31.50152721135235 0 0 0
1210 121 10 -0.358962 6.627550133991242 5.833659853999298 32.19830368231822 0 0 0
1283 129 7 -0.358962 8.760207802759266 9.24015913304519 33.179020959197246 0 0 0
1209 121 9 -0.358962 5.900168479769886 3.9293567593362155 28.26496758823545 0 0 0
1539 154 9 -0.358962 12.299721773957714 1.7412950187779324 29.440167707122566 0 1 0
1303 131 7 -0.358962 15.450048507490738 9.078836679543828 33.21352021558305 0 0 0
1275 128 8 -0.358962 2.814650399440519 4.234865991128161 28.360508751577942 1 0 0
1537 154 5 0.404798 11.847644356348505 1.4142185793765765 28.426181194746924 0 1 0
1229 123 9 -0.358962 13.48723634410631 4.4739006463707325 27.852563606375025 0 0 0
1620 162 10 -0.358962 12.144613141299683 9.401874694126432 33.01215060209757 0 0 0
1674 168 4 0.404798 3.539279947567179 4.8905756485723275 35.01290740323008 1 0 0
1217 122 5 0.404798 11.744510027381313 7.465066564270572 28.18495482518946 0 0 0
1219 122 9 -0.358962 12.161383604080838 7.6572554119711365 29.206721342463222 0 0 0
1940 194 10 -0.358962 12.37308106259343 3.113117735280229 32.88849688992976 0 1 0
1755 176 8 -0.358962 3.7257599147991542 10.116892782054398 36.071768357397595 1 0 0
1222 123 3 0.404798 15.433982803370986 2.8111330218801047 31.985786469060866 0 0 0
1304 131 4 0.404798 15.120568976620207 8.207964791550511 29.827238738127935 0 0 0
1224 123 4 0.404798 15.509843493469392 2.0839156091197504 29.700544701219123 0 0 0
1629 163 9 -0.358962 14.630874327866218 4.323430438526802 35.09904541328028 0 0 0
1221 123 1 -0.091672 15.078254927245029 3.1237842548937724 30.635974545720778 0 0 0
1301 131 1 -0.091672 14.835354333745313 9.233542216706118 30.705034295358335 0 0 0
1226 123 2 -0.091672 14.368558018649294 4.203508462323828 30.30798226363173 0 0 0
1227 123 5 0.404798 13.933970815935378 4.406240874455113 28.961885138171343 0 0 0
1225 123 8 -0.358962 15.804604519993449 1.3147924564889426 28.87714788227803 0 0 0
1228 123 6 0.404798 14.12462057836162 5.236947235433539 31.169978657028715 0 0 0
1230 123 10 -0.358962 13.94738697113306 6.0399345387385726 31.927723990571703 0 0 0
1276 128 2 -0.091672 4.087738874399069 7.261479366760834 27.215194623098053 1 0 0
1274 128 4 0.404798 3.1411412194756902 5.097644053023294 27.652690153514634 1 0 0
1536 154 2 -0.091672 11.364814094486537 0.9648953032734708 27.145901144752504 0 1 0
1997 200 5 0.404798 4.990418320905871 1.1224709974658935 35.6633403512055 1 1 0
1617 162 5 0.404798 12.009511347477952 7.8142620282879625 36.07946309448974 0 0 0
156 16 2 -0.091672 2.4442758938922617 13.3088866089174 5.542666131347881 1 0 0
92 10 3 0.404798 8.914142693098823 12.272686188837383 4.320327566109913 0 0 0
93 10 7 -0.358962 8.728861156642024 12.092106303769427 3.1866316142226982 0 0 0
1762 177 3 0.404798 6.724629626762644 15.510577023066913 3.5077366478195757 0 0 1
97 10 5 0.404798 10.337478992400895 13.79845270968368 7.350791914488365 0 0 0
91 10 1 -0.091672 9.226052497039024 12.551927058889042 5.691689656534345 0 0 0
94 10 4 0.404798 8.876159936703452 11.446760358560176 6.586527205399619 0 0 0
1687 169 5 0.404798 4.455653633702097 10.731643612053064 0.8284863008512033 0 0 1
151 16 1 -0.091672 1.6667833786216968 12.252090409953395 5.232544367830022 1 0 0
1763 177 7 -0.358962 7.277440707725911 15.396447491569237 4.528352830417892 0 0 1
87 9 5 0.404798 5.047606923327647 10.655817345716459 7.999000714867482 0 0 0
159 16 9 -0.358962 3.416286890891461 13.557343513651219 7.860483798992123 1 0 0
153 16 7 -0.358962 0.7347047475445243 11.80190173900141 2.812900385432019 1 0 0
96 10 2 -0.091672 9.817207294685039 13.653172825487477 6.07950554706887 0 0 0
158 16 6 0.404798 2.366537944853511 14.452947023685272 4.753358374744314 1 0 0
239 24 9 -0.358962 3.306674278568855 19.94456333596263 7.779983939081222 1 0 0
99 10 9 -0.358962 10.78916281109752 13.738322268894649 8.436378332734016 0 0 0
157 16 5 0.404798 2.9894127592609196 13.466881001959415 6.813062401659652 1 0 0
1764 177 4 0.404798 6.181119728277345 14.560824382219975 1.354405425868656 0 0 1
164 17 4 0.404798 6.54800690536845 14.551442885120414 8.224388995838659 0 0 0
232 24 3 0.404798 1.1654618815248547 17.899741003914144 3.9448668300319767 1 0 0
1688 169 6 0.404798 5.227776832524225 11.257776845437641 2.9143786732481702 0 0 1
1690 169 10 -0.358962 5.061029722285869 11.993645864857175 3.824055184389348 0 0 1
98 10 6 0.404798 10.080497062658019 14.638632300989848 5.153245750759284 0 0 0
165 17 8 -0.358962 6.680862971918418 13.715567538172552 7.452837154372312 0 0 0
1761 177 1 -0.091672 6.095482027494835 15.706819020707949 2.249183983018901 0 0 1
238 24 6 0.404798 2.551493129910791 20.565233819568096 4.5466007370774655 1 0 0
100 10 10 -0.358962 10.333216612515992 15.444254160760316 4.323831243770045 0 0 0
176 18 2 -0.091672 9.476403524740393 19.692665415728708 5.441393968353938 0 0 0
236 24 2 -0.091672 2.3348680548453196 19.49534300417857 5.4638963557496 1 0 0
172 18 3 0.404798 8.240289372570308 18.234179658118 3.908506164593238 0 0 0
173 18 7 -0.358962 8.048144370773215 18.00047808354489 2.8263885536542124 0 0 0
1788 179 6 0.404798 11.984718387286245 17.79832017638201 2.5655427434299276 0 0 1
171 18 1 -0.091672 8.701109353835715 18.61249768797011 5.229585293774341 0 0 0
174 18 4 0.404798 8.68628987031551 17.604232182075524 6.177172856695218 0 0 0
175 18 8 -0.358962 8.81857124973703 16.76568815535329 6.994280511426193 0 0 0
231 24 1 -0.091672 1.6039900884963525 18.342058621634013 5.2614052195869965 1 0 0
1706 171 2 -0.091672 12.341918311428023 10.553656695729368 1.667033615291193 0 0 1
235 24 8 -0.358962 1.1502269914264949 16.644437970768628 7.126432166469343 1 0 0
1845 185 8 -0.358962 6.336611460919353 19.698037884860252 0.41761174023099384 0 0 1
154 16 4 0.404798 1.4810369480210976 11.152587687708705 6.198724954741264 1 0 0
233 24 7 -0.358962 0.7339656347229324 17.743363021866625 2.8717811967297786 1 0 0
245 25 8 -0.358962 6.861053095150464 19.79225247242014 7.610440903941506 0 0 0
167 17 5 0.404798 5.100247362039782 16.880214781740555 7.484174352693904 0 0 0
1766 177 2 -0.091672 5.168130461178066 16.67099028044133 2.0951479260641213 0 0 1