LAMMPS data file via write_data, version 29 Sep 2021, timestep = 5000000

1620 atoms
10 atom types
1458 bonds
9 bond types
1620 angles
10 angle types
1944 dihedrals
12 dihedral types

0 31.303 xlo xhi
0 31.303 ylo yhi
0 31.303 zlo zhi

Masses

1 12.01
2 12.01
3 12.01
4 12.01
5 12.01
6 12.01
7 14.01
8 14.01
9 14.01
10 14.01

Bond Coeffs # harmonic

1 400 1.426
2 400 1.426
3 400 1.426
4 400 1.426
5 549 1.34
6 650 1.16
7 650 1.16
8 650 1.16
9 650 1.16

Angle Coeffs # harmonic

1 70 116.8
2 70 116.8
3 70 121.6
4 70 121.6
5 70 121.6
6 70 121.6
7 70 178.9
8 70 178.9
9 70 178.9
10 70 178.9

Dihedral Coeffs # opls

1 0 0 0 0
2 0 0 0 0
3 0 0 0 0
4 0 0 0 0
5 0 0 0 0
6 0 0 0 0
7 0 0 0 0
8 0 0 0 0
9 0 14 0 0
10 0 14 0 0
11 0 14 0 0
12 0 14 0 0

Atoms # full

1337 134 5 0.404798 4.174698111174222 4.944079097014963 4.704415340099115 0 1 -1
1336 134 2 -0.091672 4.003156192812453 3.6700618837320684 4.038438580433446 0 1 -1
1331 134 1 -0.091672 4.949235176073274 2.7249068637657956 3.953488311543074 0 1 -1
1339 134 9 -0.358962 4.271120087377791 5.935136959157963 5.299484345844988 0 1 -1
1089 109 9 -0.358962 4.776176806490246 8.448046534106654 2.9753583190718835 0 1 1
1087 109 5 0.404798 5.922849675689479 8.596561241207242 3.0685501736797773 0 1 1
1322 133 3 0.404798 2.004680999888653 8.255984605681208 5.740572392061081 1 1 -1
1083 109 7 -0.358962 10.36242044676108 10.283671441158646 3.911999008723435 0 1 1
1338 134 6 0.404798 2.77422940273403 3.594837648748829 3.294804900714061 0 1 -1
1334 134 4 0.404798 6.014321180124342 2.6916722873432533 4.858309422586545 0 1 -1
983 99 7 -0.358962 2.343138868647092 5.490280661439908 0.5153230201295659 1 0 0
982 99 3 0.404798 2.5714166873550184 6.5051541093590926 0.0019799355592826397 1 0 0
1330 133 10 -0.358962 1.3810704647547456 8.125030580497137 2.3883763330819767 1 1 -1
1328 133 6 0.404798 1.773564418185728 8.933121609418242 3.1222274039978437 1 1 -1
1340 134 10 -0.358962 1.786247210111964 3.4925990787445667 2.6956067036280693 0 1 -1
1020 102 10 -0.358962 8.109943812799997 10.227120739063212 0.33270087741642257 0 0 1
1321 133 1 -0.091672 2.4902661083154327 9.559961682972478 5.324849022996948 1 1 -1
1525 153 8 -0.358962 5.3350511571620185 8.512938048097634 6.73137543939818 -1 0 0
1576 158 2 -0.091672 1.1530004892533958 0.2950722478411933 6.270784039518144 0 0 0
29 3 9 -0.358962 13.910848801487221 10.256255808984562 2.0498181647678066 0 0 0
1326 133 2 -0.091672 2.290081805789499 9.914394781681864 4.048172311518751 1 1 -1
1445 145 8 -0.358962 1.1699612885046227 0.16583675144060497 2.59345371086234 1 1 1
1524 153 4 0.404798 6.11157909584663 7.8170326194216875 7.239627364982722 -1 0 0
1323 133 7 -0.358962 1.6904837014387433 7.239762909714434 6.203361258062441 1 1 -1
1335 134 8 -0.358962 6.915026311746876 2.829213492779965 5.576231906020383 0 1 -1
600 60 10 -0.358962 0.04371051905812321 10.116722067496255 7.286608355764422 0 -1 1
1073 108 7 -0.358962 5.376637244918577 4.96119491167922 1.2906323583356896 1 1 1
1086 109 2 -0.091672 7.300998628985202 8.850882115922495 3.136758226727971 0 1 1
1333 134 7 -0.358962 4.3786531068973265 0.5369826276735407 2.7386951653782066 0 1 -1
1580 158 10 -0.358962 3.1876593903687187 1.7701990637913645 6.933595466984068 0 0 0
1529 153 9 -0.358962 7.443151974393998 5.9067536382554735 4.766924459457317 -1 0 0
1332 134 3 0.404798 4.6543931252662984 1.5008544637068149 3.322234823300228 0 1 -1
1432 144 3 0.404798 11.41236500780717 3.0753154083059817 4.476697097959762 -1 0 0
1578 158 6 0.404798 2.2110161529848655 1.1771838591926675 6.7333432354320655 0 0 0
1278 128 6 0.404798 12.576786989520304 5.99248763218301 1.9349323909704788 1 0 0
1444 145 4 0.404798 0.6454939658491764 0.2860277879420078 1.5657922170363945 1 1 1
1438 144 6 0.404798 10.655147471716957 0.25207753679103423 4.759530271847027 -1 0 0
1071 108 1 -0.091672 7.686852543856727 4.078898015861578 0.5278749955751051 1 1 1
1434 144 4 0.404798 12.955432456463274 2.388705209462272 2.8336731074471895 -1 0 0
1274 128 4 0.404798 13.83173946855397 8.167473186043411 4.700629298103497 1 0 0
1074 108 4 0.404798 8.377238685902999 3.490084803276856 1.5619164515626576 1 1 1
465 47 8 -0.358962 15.366699283963273 5.400227932161495 5.723311831876911 0 0 0
1272 128 3 0.404798 11.706857234306058 7.1837424714974905 4.30190829214694 1 0 0
1435 144 8 -0.358962 13.79758002705817 2.5021279176994926 2.0440385302747 -1 0 0
1075 108 8 -0.358962 8.96629821353311 2.9317589259342416 2.3906993523175974 1 1 1
1090 109 10 -0.358962 8.848967948536082 7.248892739008532 1.835700286644977 0 1 1
1072 108 3 0.404798 6.427368505488923 4.60941147787147 0.9473944646364715 1 1 1
1527 153 5 0.404798 7.63860374587272 5.911314340151003 5.910330690457267 -1 0 0
1081 109 1 -0.091672 7.798938140321478 9.887022871209105 3.8252846115513224 0 1 1
1088 109 6 0.404798 8.155766131950253 7.995030510456029 2.390992703563585 0 1 1
1043 105 7 -0.358962 12.552421923199871 5.886923268495615 7.45098035879662 0 0 0
1280 128 10 -0.358962 11.830803689705384 5.392510412462208 1.2798474691900965 1 0 0
1277 128 5 0.404798 14.7962313062268 6.924766336173054 2.308473196350434 1 0 0
1275 128 8 -0.358962 14.49817034331541 8.879422635811967 5.328799564703616 1 0 0
1050 105 10 -0.358962 12.39620486716589 1.8650723075260807 6.916956930721635 0 0 0
1048 105 6 0.404798 13.129448579265999 2.314987917457849 7.695114757649455 0 0 0
1276 128 2 -0.091672 13.483701869463435 6.699888381390705 2.7871870571346933 1 0 0
1273 128 7 -0.358962 10.611001663408992 7.031770845113691 4.650627660738738 1 0 0
1271 128 1 -0.091672 13.068891361687987 7.264561864305357 3.929411251098364 1 0 0
1082 109 3 0.404798 9.213707408050249 10.123416818947398 3.9314106234485955 0 1 1
1431 144 1 -0.091672 12.003751984800095 2.0349939717825847 3.8272554166296717 -1 0 0
1436 144 2 -0.091672 11.686752580269362 0.7348206651603756 3.895525123636131 -1 0 0
1526 153 2 -0.091672 7.817453806183982 6.041718690391348 7.304250293419114 -1 0 0
1433 144 7 -0.358962 10.996278478105996 3.9672703489179204 5.090609458965794 -1 0 0
1324 133 4 0.404798 2.991961354097617 10.37287958494811 6.392548292920271 1 1 -1
899 90 9 -0.358962 0.2635539636172496 5.389631774861107 4.653920306741808 -1 1 0
985 99 8 -0.358962 4.587073097620932 9.445149401495177 0.10844587104192085 1 0 0
796 80 2 -0.091672 3.723992601786412 4.731343458483572 10.696841524026668 0 1 0
797 80 5 0.404798 4.943213880831718 4.636189223697404 11.404094116944826 0 1 0
799 80 9 -0.358962 5.969187664801674 4.538192534012585 11.936423383728284 0 1 0
798 80 6 0.404798 2.568509889189677 5.220304712789649 11.332605844093058 0 1 0
1592 160 3 0.404798 7.57261487990862 1.5654233885183935 10.847294350391255 0 1 0
791 80 1 -0.091672 3.7478060265124555 4.288032193038809 9.43252034363043 0 1 0
792 80 3 0.404798 2.5329904968217902 4.34624808311125 8.663086485676256 0 1 0
800 80 10 -0.358962 1.598298990654065 5.723624595071353 11.721141446232236 0 1 0
811 82 1 -0.091672 13.247777413580483 9.311299908590307 8.557662309979257 1 1 1
1593 160 7 -0.358962 6.412755253239491 1.583401092349412 10.848869245702689 0 1 0
1591 160 1 -0.091672 8.987611258336376 1.346781758158772 10.720123571385304 0 1 0
1411 142 1 -0.091672 0.43409807824064406 8.638756726386971 15.511527269972623 0 0 1
794 80 4 0.404798 4.925972855920976 3.7256821721531117 8.92423835970912 0 1 0
150 15 10 -0.358962 4.103634049520668 3.314177538690677 14.733633420879368 1 0 0
489 49 9 -0.358962 1.3348850670088581 2.7399159710599257 12.534218303242094 0 -1 0
190 19 10 -0.358962 5.392834506254501 10.198650144229102 9.613405564048776 1 0 0
1418 142 6 0.404798 0.5549437926109992 6.33888719994465 14.967777182334403 0 0 1
592 60 3 0.404798 2.2024464930494596 8.828460422274548 9.902294062150096 0 -1 1
795 80 8 -0.358962 5.829149283594795 3.274872323929454 8.35271160179625 0 1 0
142 15 3 0.404798 5.751928322185172 6.661330154366095 14.689757084595039 1 0 0
148 15 6 0.404798 5.036177498028614 3.9017889431958626 15.095124181870965 1 0 0
591 60 1 -0.091672 1.457032741647389 9.890872072240331 10.437338018858316 0 -1 1
1127 113 5 0.404798 14.01757839113908 10.409581791885032 12.86253902471247 0 0 1
1420 142 10 -0.358962 1.1113218114064733 5.323214130231232 15.034498438836637 0 0 1
593 60 7 -0.358962 2.870316197486783 7.957685087698378 9.52639463796989 0 -1 1
143 15 7 -0.358962 4.953225657756759 7.372743960154203 14.240797777406813 1 0 0
595 60 8 -0.358962 1.5291259361111889 9.906058073667754 13.018447774327498 0 -1 1
1530 153 10 -0.358962 9.522798592006883 4.548853146480296 8.591464498812618 -1 0 0
1600 160 10 -0.358962 8.997087652235688 4.230186043180491 12.675821324779179 0 1 0
1505 151 8 -0.358962 5.781032865123097 0.5365872839150909 14.464106739404674 1 0 0
146 15 2 -0.091672 6.249088571539294 4.458435728172577 15.51743440354591 1 0 0
487 49 5 0.404798 0.4514162309380096 2.0081327507579663 12.70619545505022 0 -1 0
1137 114 5 0.404798 12.514568664346083 3.0798429766014284 15.06204919772324 0 0 1
1594 160 4 0.404798 9.308829575443609 0.10545648269454864 10.059890588073268 0 1 0
1138 114 6 0.404798 13.29928794996384 0.8843160096890978 15.501929545941751 0 0 1
141 15 1 -0.091672 6.605004566955093 5.727571775806412 15.276151380865427 1 0 0
189 19 9 -0.358962 7.580904266087361 9.744668295503496 13.293068260607727 1 0 0
812 82 3 0.404798 13.607252054663691 8.169387966519691 9.309388457308792 1 1 1
816 82 2 -0.091672 12.054640161443883 9.508513555772536 7.980487920685653 1 1 1
1041 105 1 -0.091672 14.203278764661398 4.266192322793791 8.656623104888453 0 0 0
663 67 7 -0.358962 9.964900163932487 0.3981005151367687 14.877978705818672 1 0 -1
187 19 5 0.404798 6.638337298285171 10.258020088172428 12.853025702390104 1 0 0
1173 118 7 -0.358962 15.257087083172829 4.834004303626176 13.511085795432951 0 0 0
818 82 6 0.404798 10.974312915092566 8.598245796983205 8.271286414340864 1 1 1
793 80 7 -0.358962 1.5529102522527103 4.378396714479126 8.043401739926864 0 1 0
1175 118 8 -0.358962 13.446447078553808 8.477337605050812 15.212474402769868 0 0 0
1174 118 4 0.404798 13.368224545462516 7.566656187520631 14.498233129347582 0 0 0
1178 118 6 0.404798 12.1037089633118 5.284405928139826 11.772379607047583 0 0 0
1172 118 3 0.404798 14.343230372162035 5.546424204324773 13.565157944046657 0 0 0
1044 105 4 0.404798 15.22086907996503 4.775942880443046 9.463331747738737 0 0 0
1180 118 10 -0.358962 12.011684547215236 4.539576971113808 10.887867684822535 0 0 0
1521 153 1 -0.091672 7.1208660587622905 7.024613925364156 7.891006190544573 -1 0 0
1179 118 9 -0.358962 10.183806447695858 7.944160578347315 13.012114758931293 0 0 0
820 82 10 -0.358962 10.15272211800178 7.848193217036816 8.599934705303838 1 1 1
1047 105 5 0.404798 14.96563527401142 2.105792442165657 9.229117779452613 0 0 0
1171 118 1 -0.091672 13.284536985775222 6.465092314136835 13.603804216673895 0 0 0
813 82 7 -0.358962 13.87613550037669 7.207933401429104 9.90007182271675 1 1 1
1177 118 5 0.404798 11.091744351520134 7.224936965147223 12.949137259404818 0 0 0
1523 153 7 -0.358962 6.9601059667688245 7.436497709393694 10.436667616868293 -1 0 0
1522 153 3 0.404798 7.150793659869735 7.259105440543952 9.306282636857306 -1 0 0
1598 160 6 0.404798 9.31217135873839 3.24127842860682 12.157763424475482 0 1 0
1046 105 2 -0.091672 14.078575663939924 2.9357384131719026 8.556915856954452 0 0 0
1139 114 9 -0.358962 11.701141201375876 3.774486399248762 14.613266087228935 0 0 1
1597 160 5 0.404798 11.179233544812337 1.7089073920929514 11.722434277447737 0 1 0
1599 160 9 -0.358962 12.266794100371609 1.4187309196974378 12.002808417181594 0 1 0
1176 118 2 -0.091672 12.184837034871794 6.27621044531094 12.861790965295846 0 0 0
1596 160 2 -0.091672 9.829955274562073 2.0998869519312042 11.440463163475219 0 1 0
594 60 4 0.404798 1.505725711842087 9.925316807919723 11.858843733560077 0 -1 1
1528 153 6 0.404798 8.73666799405899 5.1974044075311125 8.03740678865794 -1 0 0
1049 105 9 -0.358962 15.632327124495808 1.4476435800116794 9.913195301830333 0 0 0
814 82 4 0.404798 14.339317772448956 10.243666181880055 8.408498009508731 1 1 1
598 60 6 0.404798 0.3069056170071231 10.377538881221112 8.385836692134978 0 -1 1
1129 113 9 -0.358962 13.22711409997052 9.98422608293447 12.127801840266672 0 0 1
1042 105 3 0.404798 13.278139763694378 5.150545645992706 7.976985707838784 0 0 0
974 98 4 0.404798 5.10027714662468 5.292196034045601 21.46014913462165 0 1 0
975 98 8 -0.358962 5.7423569930708425 6.250511012964763 21.33781403666036 0 1 0
971 98 1 -0.091672 4.513846894066191 4.050677285054527 21.65012255988172 0 1 0
977 98 5 0.404798 4.622987637562171 3.652853441887944 19.29159592712881 0 1 0
978 98 6 0.404798 3.643963657851644 2.0157834622578252 20.720550515944762 0 1 0
976 98 2 -0.091672 4.311905509426054 3.2330906398404946 20.607830969846994 0 1 0
979 98 9 -0.358962 4.952381608881766 4.028595041753482 18.244734965324152 0 1 0
232 24 3 0.404798 5.986589029361024 8.460765405881094 18.69780163569384 -1 -1 0
231 24 1 -0.091672 5.17186518218325 9.306776225552902 19.49947515348593 -1 -1 0
240 24 10 -0.358962 2.9338099696789115 6.619331125064537 19.692511703087792 -1 -1 0
238 24 6 0.404798 3.4580133257969607 7.623955407628198 19.940586076514276 -1 -1 0
236 24 2 -0.091672 4.040011852133398 8.915158570721614 20.10042745382519 -1 -1 0
1532 154 3 0.404798 1.5971541362352133 7.1434150670319845 23.11282732854999 1 0 -1
713 72 7 -0.358962 10.207800407446816 2.0053961244085654 21.420203156526465 0 0 1
233 24 7 -0.358962 6.696393788322954 7.753586390988605 18.113271871233763 -1 -1 0
980 98 10 -0.358962 3.0329970972168976 1.0613026578433071 20.968111127631623 0 1 0
237 24 5 0.404798 3.2482100883657585 9.90407954022416 20.825611332561436 -1 -1 0
1533 154 7 -0.358962 1.9589873852178923 6.171907354815206 22.592395327823358 1 0 -1
972 98 3 0.404798 4.215698144473374 3.602588586629594 22.954476568201688 0 1 0
145 15 8 -0.358962 9.010517486649261 6.537198235340722 15.87908396974758 1 0 0
205 21 8 -0.358962 7.633958112376212 3.557693159334883 22.73835155345235 0 1 0
712 72 3 0.404798 9.795898416352154 1.5622035353244483 20.430497604970476 0 0 1
324 33 4 0.404798 12.571824280478069 3.571093227392575 23.125149959472328 0 0 0
1000 100 10 -0.358962 9.013787898870133 7.6442056355310894 22.344599236113616 0 0 -1
1495 150 8 -0.358962 1.5205802724441226 2.653488925345947 18.68307798873226 1 0 1
534 54 4 0.404798 11.397212899464927 9.326631300964385 17.54478516480598 0 0 -1
999 100 9 -0.358962 7.797014865865417 4.461404089113526 19.441803877525345 0 0 -1
993 100 7 -0.358962 12.72631990528526 7.332258044455584 21.281355707032255 0 0 -1
716 72 2 -0.091672 8.135463681240884 0.6018551297583151 18.912641287200227 0 0 1
1494 150 4 0.404798 0.8111173169583572 3.333417657455882 19.2994863229179 1 0 1
149 15 9 -0.358962 7.9767273723524585 2.7604968171980477 16.46871659645254 1 0 0
1267 127 5 0.404798 14.81700066619186 9.589676112887197 19.85766531456691 0 0 -1
147 15 5 0.404798 7.239520986254331 3.551049672918411 16.047821206156875 1 0 0
995 100 8 -0.358962 11.751845169898099 4.775764813992927 17.94459361356765 0 0 -1
329 33 9 -0.358962 14.94852401354886 4.32729491008659 20.520383328859886 0 0 0
997 100 5 0.404798 8.55655509363971 5.18145612752363 19.942027541847374 0 0 -1
1134 114 4 0.404798 14.729935374212399 4.078322175666532 16.726542299340537 0 0 1
998 100 6 0.404798 9.179474731010309 6.849433212668894 21.51605552511137 0 0 -1
1538 154 6 0.404798 0.1339737877198697 9.026187786781847 21.660150246785083 1 0 -1
996 100 2 -0.091672 9.624244681751861 5.973952508288998 20.502195469113612 0 0 -1
1132 114 3 0.404798 15.339529663606754 1.767899063181055 17.275796465491894 0 0 1
535 54 8 -0.358962 11.918087771150708 8.377017381688248 17.960143778243783 0 0 -1
711 72 1 -0.091672 9.384959394390423 1.0414434802406312 19.115428238579906 0 0 1
991 100 1 -0.091672 10.906241792906327 5.906279702613659 20.11813323069385 0 0 -1
1412 142 3 0.404798 1.798191191689791 8.497990517585324 16.082056763874277 0 0 1
325 33 8 -0.358962 11.620488542575648 4.1959891625537695 22.901397000797747 0 0 0
1491 150 1 -0.091672 0.01138428967953331 4.03814153152316 20.197644448081753 1 0 1
714 72 4 0.404798 10.419219592321223 0.9018404699234157 18.21829426753997 0 0 1
327 33 5 0.404798 14.879470232885023 3.735594966447959 21.515733898761944 0 0 0
992 100 3 0.404798 11.851100486267324 6.74592341931842 20.795760525908783 0 0 -1
994 100 4 0.404798 11.36600432192183 5.2633856334978715 18.923854964009415 0 0 -1
326 33 2 -0.091672 14.871687717685408 2.966285785316062 22.699028666180542 0 0 0
715 72 8 -0.358962 11.26692327435794 0.8448447453958052 17.428515843049652 0 0 1
1135 114 8 -0.358962 14.8915489869496 5.212564014706594 16.9081366146683 0 0 1
1131 114 1 -0.091672 14.428114420533447 2.6744525200367217 16.541778862896532 0 0 1
1413 142 7 -0.358962 2.8674855187317294 8.34477389493175 16.504826582548333 0 0 1
1266 127 2 -0.091672 15.616274021053185 8.404717371308063 19.89676185463314 0 0 -1
1536 154 2 -0.091672 0.3333507295859039 9.159064384237066 23.04541292423153 1 0 -1
718 72 6 0.404798 7.235915921781392 0.7334800960398277 20.075025533561828 0 0 1
720 72 10 -0.358962 6.412841179074583 0.8583883970162759 20.882828655848137 0 0 1
144 15 4 0.404798 7.926868610470865 6.153019284242289 15.725098092217968 1 0 0
1136 114 2 -0.091672 13.519639719235807 2.2158887513786674 15.67000309318405 0 0 1
1540 154 10 -0.358962 0.0629111889320697 8.952565356443388 20.5046720373523 1 0 -1
81 9 1 -0.091672 1.1391912680737741 2.6167750426810334 26.898075715092986 1 0 -1
88 9 6 0.404798 3.280667078120439 2.0604174589052766 27.584488052031578 1 0 -1
90 9 10 -0.358962 3.9589263244761876 1.1607325325191147 27.860407304356563 1 0 -1
86 9 2 -0.091672 2.3807975498567853 3.024468549054902 27.19438615355198 1 0 -1
87 9 5 0.404798 2.706332019881585 4.431078033507459 27.24229315227266 1 0 -1
89 9 9 -0.358962 2.982246032797457 5.557770869344482 27.236401124530303 1 0 -1
82 9 3 0.404798 0.7238053057678462 1.229395267908633 26.842448035664425 1 0 -1
372 38 3 0.404798 6.966736162720848 8.01997263748925 27.61607435082213 0 1 0
84 9 4 0.404798 0.14519145585059373 3.5998585899052813 26.584396649704324 1 0 -1
986 99 2 -0.091672 2.007707839541778 8.124851444112808 29.539317672771265 1 0 -1
371 38 1 -0.091672 6.162171830456052 7.721212580959517 26.46114741860265 0 1 0
988 99 6 0.404798 1.1006649952609604 7.257899466174811 28.913688549735628 1 0 -1
374 38 4 0.404798 6.180807462606962 6.331744034424562 26.057456836446686 0 1 0
973 98 7 -0.358962 3.9269868113352286 3.3596012351406483 24.051382637756117 0 1 0
375 38 8 -0.358962 6.159517882381896 5.247163884445104 25.646564325498073 0 1 0
207 21 5 0.404798 6.3606808557707275 1.408637427211022 25.065942552147238 0 1 0
1535 154 8 -0.358962 1.8048919686841225 8.809977582833449 26.141243534682395 1 0 -1
373 38 7 -0.358962 7.534173319829584 8.374287287186911 28.56374317735654 0 1 0
768 77 6 0.404798 14.102795293972548 0.6110212877482935 29.397553287028543 0 0 0
376 38 2 -0.091672 5.537150103376034 8.716348251988714 25.81721198650805 0 1 0
1019 102 9 -0.358962 11.00281026316541 10.202203841825863 28.2298937794174 0 0 0
628 63 6 0.404798 15.31513650109227 8.639173368400128 26.546909942439484 -1 0 0
1534 154 4 0.404798 1.463651842184513 8.589189875391018 25.054777718656382 1 0 -1
987 99 5 0.404798 2.189174606473832 9.435655201842827 29.079939206422907 1 0 -1
377 38 5 0.404798 4.84623953502425 8.396704893231787 24.70104039090813 0 1 0
928 93 6 0.404798 6.154401705056511 0.4891399299051585 30.406070881672616 1 1 0
209 21 9 -0.358962 5.452537669770006 0.927483607347501 24.528014156835074 0 1 0
83 9 7 -0.358962 0.4418958548624358 0.1042277510337095 26.83126162796801 1 0 -1
984 99 4 0.404798 3.7201759684518336 8.723574280271015 31.14048696837893 1 0 -1
204 21 4 0.404798 8.037557793530189 3.218544905524758 23.77164036084912 0 1 0
1442 145 3 0.404798 0.2663952389456306 1.2184614678172039 30.687732737183957 1 1 0
206 21 2 -0.091672 7.4914397953353005 2.0059200096576024 25.6636638529242 0 1 0
766 77 2 -0.091672 14.639087606708614 1.9622423865681893 29.36791704456123 0 0 0
203 21 7 -0.358962 10.547350859814312 3.707087463436035 26.22090735393235 0 1 0
981 99 1 -0.091672 2.6899241436926933 7.788555523426846 30.642533866878146 1 0 -1
370 37 10 -0.358962 11.681060227108535 8.581006034987471 31.10185817839518 0 1 -1
1080 108 10 -0.358962 6.436683974698705 5.5083521474584 28.935529644303738 1 1 0
1077 108 5 0.404798 9.231911946121482 3.771407344863495 29.977262686486572 1 1 0
210 21 10 -0.358962 8.01126392322805 1.2874032389478651 28.07225232557166 0 1 0
364 37 4 0.404798 13.021503696197676 5.41759313771891 27.6962755428751 0 1 -1
1037 104 5 0.404798 11.825636222355884 8.449006725629026 24.500091899368567 0 0 -1
1079 108 9 -0.358962 10.218368497019434 3.4124560115085085 29.48364601706883 1 1 0
322 33 3 0.404798 13.80724031165462 2.127838343986629 24.725792872762113 0 0 0
1036 104 2 -0.091672 12.062563295527058 9.826922295952595 24.39392378065733 0 0 -1
767 77 5 0.404798 13.713999045379955 2.9669333085624214 29.799158347583734 0 0 0
378 38 6 0.404798 5.604863967967892 10.12722713953629 26.293642964162785 0 1 0
1076 108 2 -0.091672 7.995091526343793 4.152342168987379 30.52887856780408 1 1 0
1078 108 6 0.404798 7.121059359825505 4.889829251304927 29.6388501714385 1 1 0
208 21 6 0.404798 7.7291835506268045 1.5987699140395977 26.991011610906703 0 1 0
1039 104 9 -0.358962 11.744124244581084 7.295512720498118 24.59178379538885 0 0 -1
1035 104 8 -0.358962 8.764052203592698 9.974762656980076 25.4169113507725 0 0 -1
369 37 9 -0.358962 15.502596750946083 6.932630540816324 30.01364081528954 0 1 -1
366 37 2 -0.091672 12.964153321851253 7.051414538728088 29.439292944040925 0 1 -1
630 63 10 -0.358962 14.23189182741921 8.661366351310596 26.961262995726365 -1 0 0
363 37 7 -0.358962 9.819202564109224 6.416800377111922 28.048292069284948 0 1 -1
365 37 8 -0.358962 13.514077469726104 4.660065551173651 26.968867088212956 0 1 -1
1034 104 4 0.404798 9.814112058677734 10.330157391851534 25.075343066152946 0 0 -1
367 37 5 0.404798 14.382895871046188 6.940946128803428 29.710654362056882 0 1 -1
202 21 3 0.404798 9.535484055251965 3.3526148083759026 25.778104114494145 0 1 0
368 37 6 0.404798 12.297242777562763 7.980850814658737 30.323569806147677 0 1 -1
201 21 1 -0.091672 8.368936326616758 2.8241431279915656 25.066913677433963 0 1 0
323 33 7 -0.358962 13.86029313205827 1.6215880335567165 25.768144072312914 0 0 0
362 37 3 0.404798 10.939497199798183 6.4009977070057555 28.348775371034826 0 1 -1
361 37 1 -0.091672 12.346338682996809 6.346369983107382 28.481787196193043 0 1 -1
769 77 9 -0.358962 13.09760722006586 3.8373412398871687 30.255284596933357 0 0 0
1443 145 7 -0.358962 0.7546242587249768 2.02256340737146 30.009018874549483 1 1 0
990 99 10 -0.358962 0.36380518934102907 6.4696972974245215 28.48780713275457 1 0 -1
1038 104 6 0.404798 13.359985140376942 10.146004799323126 23.917718600222038 0 0 -1
930 93 10 -0.358962 6.139888541001309 1.6179052779207557 30.673050580309436 1 1 0
379 38 9 -0.358962 4.329222929839309 8.159850734864516 23.690004317986332 0 1 0
1531 154 1 -0.091672 1.1186147880244623 8.321634236944657 23.73655047170863 1 0 -1
170 17 10 -0.358962 0.4366674717527996 0.48107226701529754 23.899896269941785 0 0 -1
321 33 1 -0.091672 13.789069458144654 2.8549340703069284 23.480782147733564 0 0 0
646 65 2 -0.091672 2.3929990986193803 15.510248152150877 5.512084602301415 0 1 1
647 65 5 0.404798 3.2625414147921514 16.14688557448881 4.5093366077630845 0 1 1
649 65 9 -0.358962 4.0209874570659725 16.516727724366053 3.713361486350681 0 1 1
1422 143 3 0.404798 1.1517970171552692 17.95227017404937 1.5733405652853951 -1 0 1
1430 143 10 -0.358962 4.2720109245506945 19.59332980327935 1.9924304132369137 -1 0 1
1329 133 9 -0.358962 3.0766763919316116 12.290550820271367 3.2616157353358375 1 1 -1
1428 143 6 0.404798 3.486833506006012 19.47526575327719 1.1467606677006927 -1 0 1
870 87 10 -0.358962 4.516662131939099 19.150791714825885 5.513797197853298 0 -1 0
868 87 6 0.404798 5.480374703418752 19.331697390822463 4.894013992167099 0 -1 0
351 36 1 -0.091672 5.5964587116226046 14.716103228554315 0.859965655163724 0 0 1
1327 133 5 0.404798 2.7426317149197774 11.227324178427954 3.5834282020045265 1 1 -1
352 36 3 0.404798 6.2264300563524175 13.737930184831898 1.6365509501010624 0 0 1
425 43 8 -0.358962 6.939546751575328 20.4358160856273 0.49607536218192827 0 0 -1
353 36 7 -0.358962 6.691446025881451 12.941119625667692 2.339724529585351 0 0 1
641 65 1 -0.091672 2.838712507818352 14.588681004314386 6.376754221972073 0 1 1
354 36 4 0.404798 4.200755905166435 14.697123949938584 0.743708139309785 0 0 1
648 65 6 0.404798 1.0731981111052558 16.01341794788261 5.700155089018264 0 1 1
1421 143 1 -0.091672 1.4416817495824517 18.55624793673359 0.35112532049902534 -1 0 1
1547 155 5 0.404798 14.980608728056165 16.582154827101267 3.7943336332177817 -1 0 0
842 85 3 0.404798 0.27800201718302037 12.145310707286702 0.7985311491565084 1 0 1
355 36 8 -0.358962 3.058438043456688 14.841146258780997 0.6024017775068352 0 0 1
644 65 4 0.404798 4.152131038325514 14.128548922829061 6.476042837453344 0 1 1
850 85 10 -0.358962 0.3906820877670911 12.871957810802478 4.285162267108553 1 0 1
1426 143 2 -0.091672 2.551949924639437 19.250565351382885 0.06682279185253955 -1 0 1
1423 143 7 -0.358962 1.0220001135128427 17.337609831951916 2.5485048749685046 -1 0 1
645 65 8 -0.358962 5.262999004084307 13.795384774690898 6.452084019638707 0 1 1
43 5 7 -0.358962 14.916286829048719 16.623503695799148 7.3022344604130245 -1 0 1
642 65 3 0.404798 1.9763580486101708 14.034301153828972 7.404174377728782 0 1 1
1085 109 8 -0.358962 6.245219730021221 11.391924987886043 5.128866744962735 0 1 1
356 36 2 -0.091672 6.284752881830767 15.644697567337884 0.18205438425199358 0 0 1
1168 117 6 0.404798 10.689956831628436 17.44229775585973 6.2490195519666205 0 0 1
1166 117 2 -0.091672 11.367786871542021 18.069381447638975 7.3452653063610285 0 0 1
866 87 2 -0.091672 6.610048646745864 19.578581935202404 4.11975910662724 0 -1 0
1549 155 9 -0.358962 15.033184462022733 15.426344597343574 3.7110358719430496 -1 0 0
1325 133 8 -0.358962 3.3304876634983387 11.123891633535012 7.209237243288897 1 1 -1
1084 109 4 0.404798 6.965402803345798 10.7111849313237 4.525932818146541 0 1 1
1546 155 2 -0.091672 14.782270317533973 18.03725491200988 3.948922205006759 -1 0 0
4 1 4 0.404798 7.816726590551518 15.302174501900762 7.426372590183396 1 1 0
817 82 5 0.404798 11.624335697365186 10.655803309711006 7.288839173093396 1 1 1
863 87 7 -0.358962 7.16101261528566 16.061674381761296 3.9941384280723313 0 -1 0
861 87 1 -0.091672 7.387185671943066 18.603227695932443 3.629512071028745 0 -1 0
862 87 3 0.404798 7.2393065951405005 17.216194667580186 3.913187989035471 0 -1 0
30 3 10 -0.358962 15.19224016003443 12.570483033312136 5.7227966204541065 0 0 0
1545 155 8 -0.358962 11.995002749025991 17.11701799945833 2.2036749578925385 -1 0 0
865 87 8 -0.358962 9.458899259261567 19.099727622410384 2.206199640122323 0 -1 0
2 1 3 0.404798 8.801895137825506 13.57160969527151 5.929732363725001 1 1 0
1169 117 9 -0.358962 12.942205100871359 20.000734381831915 6.686508692528444 0 0 1
864 87 4 0.404798 8.490410187692861 18.932831102736053 2.82245809724306 0 -1 0
1 1 1 -0.091672 8.206499197021333 13.954903253169597 7.195444225933197 1 1 0
1170 117 10 -0.358962 10.127909719291425 16.964310074851397 5.3539045753204215 0 0 1
360 36 10 -0.358962 8.883895712438918 15.851310908382809 0.28288293449274887 0 0 1
3 1 7 -0.358962 9.28740019569733 13.162622824426313 4.958848956129446 1 1 0
819 82 9 -0.358962 11.350338662620995 11.660114367237274 6.777092236756002 1 1 1
1544 155 4 0.404798 12.773160574085821 17.844308658428506 2.6631515046689223 -1 0 0
1542 155 3 0.404798 13.562754257140218 20.052146299392962 3.339150976762567 -1 0 0
1541 155 1 -0.091672 13.807003939716939 18.622941963694814 3.2408076794690186 -1 0 0
22 3 3 0.404798 12.452267540710862 14.08473767692221 4.657724932906256 0 0 0
26 3 2 -0.091672 13.468181082169083 12.061010394483263 3.8374014529258873 0 0 0
27 3 5 0.404798 13.75082916102255 11.079902178823996 2.8508177758497526 0 0 0
358 36 6 0.404798 7.725228293937135 15.798030528608484 0.2670394373021719 0 0 1
25 3 8 -0.358962 10.828449867212845 12.898591501316192 1.734395915485435 0 0 0
21 3 1 -0.091672 12.513078778761715 12.992309388837995 3.710666401121586 0 0 0
28 3 6 0.404798 14.468199020603791 12.232691983367534 4.881808129638515 0 0 0
23 3 7 -0.358962 12.390344329176575 14.848181962441778 5.528884142992374 0 0 0
24 3 4 0.404798 11.569947655228782 12.954179639544117 2.624727880990789 0 0 0
1167 117 5 0.404798 12.20575595750323 19.150812820899095 6.970895802529365 0 0 1
10 1 10 -0.358962 8.139329441726792 10.525017315691107 7.5438298870525475 1 1 0
5 1 8 -0.358962 7.378994195901083 16.347699722767928 7.67308572016817 1 1 0
313 32 7 -0.358962 0.8331198531464844 20.663633434702326 7.190032451963466 0 0 0
383 39 7 -0.358962 8.101459552065956 19.46295135603701 7.095163227030797 1 -1 1
843 85 7 -0.358962 0.9215069228140762 11.1809372744268 0.7599913156378956 1 0 1
650 65 10 -0.358962 0.00415345532896237 16.46263814001069 5.6694180972653205 0 1 1
304 31 4 0.404798 3.5766735399148017 19.461889083816722 12.475489632157098 0 0 0
301 31 1 -0.091672 3.6903407885532933 18.688773092868683 11.3205853264586 0 0 0
306 31 2 -0.091672 3.869518181933217 17.36084674964058 11.33093426786622 0 0 0
308 31 6 0.404798 3.956912623777773 16.63574839788907 10.121074535455996 0 0 0
302 31 3 0.404798 3.5728823325268912 19.359563323961115 10.126317672770158 0 0 0
307 31 5 0.404798 3.8655145721410955 16.59451249613713 12.509783010211555 0 0 0
309 31 9 -0.358962 3.7961518240740895 16.048560694540832 13.530922297801554 0 0 0
1558 156 6 0.404798 1.4276228771102615 13.823091639640563 15.11606110302122 0 0 0
1560 156 10 -0.358962 1.2358667189319874 13.82396104198197 13.972020531265933 0 0 0
310 31 10 -0.358962 3.9647728996438807 16.078221633562134 9.103871442593682 0 0 0
183 19 7 -0.358962 3.2597010472240187 13.529991289577406 11.342598733857113 1 0 0