LAMMPS data file via write_data, version 29 Sep 2021, timestep = 2000000

1600 atoms
20 atom types
1440 bonds
9 bond types
1600 angles
10 angle types
1920 dihedrals
12 dihedral types

0 30.051 xlo xhi
0 30.051 ylo yhi
0 30.051 zlo zhi
3.552713678800501e-15 3.552713678800501e-15 3.552713678800501e-15 xy xz yz

Masses

1 12.01
2 12.01
3 12.01
4 12.01
5 12.01
6 12.01
7 14.01
8 14.01
9 14.01
10 14.01
11 0.0001
12 0.0001
13 0.0001
14 0.0001
15 0.0001
16 0.0001
17 0.0001
18 0.0001
19 0.0001
20 0.0001

Bond Coeffs # harmonic

1 400 1.426
2 400 1.426
3 400 1.426
4 400 1.426
5 549 1.34
6 650 1.16
7 650 1.16
8 650 1.16
9 650 1.16

Angle Coeffs # harmonic

1 70 116.8
2 70 116.8
3 70 121.6
4 70 121.6
5 70 121.6
6 70 121.6
7 70 178.9
8 70 178.9
9 70 178.9
10 70 178.9

Dihedral Coeffs # opls

1 0 0 0 0
2 0 0 0 0
3 0 0 0 0
4 0 0 0 0
5 0 0 0 0
6 0 0 0 0
7 0 0 0 0
8 0 0 0 0
9 0 14 0 0
10 0 14 0 0
11 0 14 0 0
12 0 14 0 0

Atoms # full

1430 143 10 -0.358962 1.9001185680499943 7.52795430392694 6.7370260190801075 -1 -5 2
1005 101 8 -0.358962 5.866257179804164 0.4959652064695602 4.654521908107148 1 2 0
161 17 1 -0.091672 1.9063718151906204 3.003809733667338 6.9095968925939015 2 2 0
1017 102 5 0.404798 6.300513539363245 7.864715457798068 6.125134469109164 -3 3 -2
829 83 9 -0.358962 6.833472229339557 5.9736966245901195 0.051575499160284775 -2 -3 1
208 21 6 0.404798 8.494706305442621 9.946895201291289 4.549785117987019 1 0 2
590 59 10 -0.358962 2.7098190837732647 5.583414623599901 1.8450423737533874 0 1 -2
1014 102 4 0.404798 8.658948173236986 6.469870528576725 7.436074566762355 -3 3 -2
1049 105 9 -0.358962 14.446807135625045 2.0961174980517536 2.595860602152607 1 2 5
588 59 6 0.404798 2.801925658888816 4.746717281972448 1.0546568758649506 0 1 -2
120 12 10 -0.358962 11.785274248586965 8.174659607816361 0.0770559983794743 0 -6 2
164 17 4 0.404798 1.7491408730899347 3.788585305800232 5.731176240556138 2 2 0
389 39 9 -0.358962 6.678739240898947 5.677970562089213 3.7797631060764822 0 1 -3
608 61 6 0.404798 11.363900924523975 2.6702250369486125 7.064317229242546 2 1 0
1 1 1 -0.091672 14.703187817431832 6.881340605627332 4.185779955198174 1 -5 1
384 39 4 0.404798 8.62450773708671 2.8796496074680946 2.192518878452838 0 1 -3
1047 105 5 0.404798 14.624385696469693 1.0681024518034463 3.089783037269417 1 2 5
166 17 2 -0.091672 2.2237146687625287 1.7377901020456044 6.965898099692462 2 2 0
385 39 8 -0.358962 8.110591223250866 1.8424733069707193 2.225713374099853 0 1 -3
602 61 3 0.404798 11.593253583547703 1.224843585996122 4.578917214731218 2 1 0
1428 143 6 0.404798 1.31955822630438 8.474757728332715 7.085229256186544 -1 -5 2
381 39 1 -0.091672 9.344859175410095 4.142399437735793 2.05118114709014 0 1 -3
390 39 10 -0.358962 10.610361283112367 7.217585893702352 2.652534666499967 0 1 -3
575 58 8 -0.358962 8.65030605231393 1.5624303548985874 6.780975189882351 1 0 0
606 61 2 -0.091672 11.691546290067262 1.3584170870621193 6.965626433220392 2 1 0
167 17 5 0.404798 2.5294719892343456 1.0456891920044555 5.786287532843966 2 2 0
165 17 8 -0.358962 1.6475830990832327 4.32217142806805 4.74107044187449 2 2 0
1426 143 2 -0.091672 0.7710757626095964 9.728529037464627 7.480551230666877 -1 -5 2
386 39 2 -0.091672 8.963297360899796 5.301162111232291 2.5807058641386558 0 1 -3
207 21 5 0.404798 10.52488350021983 8.89105177132203 5.450741451763613 1 0 2
1265 127 8 -0.358962 0.5697781485237156 7.014915461122188 2.189020448152272 2 4 4
209 21 9 -0.358962 11.411921310190603 8.156210401278917 5.34516111835257 1 0 2
405 41 8 -0.358962 5.56069371129856 9.839161223052553 1.7737107184646725 -2 -2 -3
2 1 3 0.404798 14.2309768083164 8.141854298681242 4.603009262094226 1 -5 1
601 61 1 -0.091672 11.656997127956531 0.6314134996964201 5.836038868716826 2 1 0
383 39 7 -0.358962 11.731243611896565 3.8101020152616543 1.0281581479151694 0 1 -3
574 58 4 0.404798 7.986372648493796 0.6434886133712485 7.020752887194723 1 0 0
388 39 6 0.404798 9.856529491632807 6.366075953430374 2.588655102982172 0 1 -3
387 39 5 0.404798 7.699281706264404 5.481437256066439 3.1908320708239097 0 1 -3
582 59 3 0.404798 4.194179644341259 2.374999760550265 1.6983949830201295 0 1 -2
1019 102 9 -0.358962 5.727726139702379 7.599722205858579 5.1610747249321 -3 3 -2
581 59 1 -0.091672 3.495600958903022 2.4475323577816512 0.4688568709171339 0 1 -2
5 1 8 -0.358962 12.974921770901542 4.9327584235719755 4.138702808965948 1 -5 1
1016 102 2 -0.091672 6.997362362147404 8.250358766221696 7.305021943444584 -3 3 -2
4 1 4 0.404798 13.789429761439939 5.735769110164194 4.196064089490887 1 -5 1
1015 102 8 -0.358962 9.092520024484417 5.490092322776644 6.93674421670208 -3 3 -2
586 59 2 -0.091672 2.9274942257474015 3.6149933202721605 0.10497661920084041 0 1 -2
603 61 7 -0.358962 11.66058547808178 1.7402512818400413 3.538661364315514 2 1 0
3 1 7 -0.358962 13.796491942383497 9.183126764931984 4.766357983553598 1 -5 1
583 59 7 -0.358962 4.711342576484743 2.3900683255580626 2.73667819290851 0 1 -2
180 18 10 -0.358962 4.870115163818225 5.40615017308771 7.200804316005254 -2 -1 1
1565 157 8 -0.358962 0.5966765715363993 4.007638080979257 2.02467231258868 -2 1 0
382 39 3 0.404798 10.69126159108921 4.013493152093348 1.4915239449149467 0 1 -3
610 61 10 -0.358962 11.027965532061911 3.7785439744869733 7.091490810836015 2 1 0
1223 123 7 -0.358962 14.94930317323425 3.877688196298432 6.439932874449605 2 3 0
403 41 7 -0.358962 1.2868807491073002 9.680790562671312 1.4929227242785466 -2 -2 -3
710 71 10 -0.358962 13.17389485513129 5.9817973733571845 7.493572666267845 2 0 0
169 17 9 -0.358962 2.6712706896786966 0.45195582718675986 4.823193107854008 2 2 0
402 41 3 0.404798 2.204509786659829 9.986409159151775 0.8925688712081715 -2 -2 -3
206 21 2 -0.091672 9.496114082071603 9.86305166394565 5.576348435658036 1 0 2
178 18 6 0.404798 4.6741874243773776 5.385262347544582 8.347399822863249 -2 -1 1
306 31 2 -0.091672 0.460123769539896 9.249261198444124 10.949890071288815 -2 1 -3
1575 158 8 -0.358962 14.744705220461814 0.943601959598008 9.787226377867968 3 -1 2
709 71 9 -0.358962 12.827794395755697 9.28399699769539 10.401334452822063 2 0 0
1431 144 1 -0.091672 0.09555182192152421 5.006409031803364 12.703313505038658 0 3 1
704 71 4 0.404798 11.27043684844598 6.385404736939267 11.816988088656 2 0 0
702 71 3 0.404798 11.610078983561314 4.52070696354694 10.312421689711256 2 0 0
163 17 7 -0.358962 0.7311608685881016 3.980896271943651 8.974708665889402 2 2 0
701 71 1 -0.091672 11.733669881299216 5.9243408310041215 10.576402161870076 2 0 0
1475 148 8 -0.358962 12.110912958589852 9.950071962227776 13.220725040116777 0 2 -2
1433 144 7 -0.358962 0.31308220249665364 7.528972609037091 13.084575006457273 0 3 1
74 8 4 0.404798 7.7574481465216305 0.016984199036678922 10.484203416004 4 -1 0
708 71 6 0.404798 12.73297818489528 6.364370241330333 8.507578655009766 2 0 0
1209 121 9 -0.358962 10.348685566425361 1.6138677834661246 12.165688819832544 -1 1 -2
577 58 5 0.404798 5.33389175888045 1.241625506985968 8.019284547153017 1 0 0
1205 121 8 -0.358962 13.953638610261184 1.4556640888726122 14.079990831343226 -1 1 -2
703 71 7 -0.358962 11.572122988425013 3.3868484444300284 10.094029154689974 2 0 0
813 82 7 -0.358962 3.1665041274952235 7.126240722301025 12.806649487051214 4 -1 0
1432 144 3 0.404798 0.2178732743295453 6.379686230704389 12.963849063568386 0 3 1
171 18 1 -0.091672 5.141224852860451 4.4676174847938155 10.50379342817153 -2 -1 1
867 87 5 0.404798 3.6815707695014313 1.0940652573816578 13.224680887636008 -3 2 -1
1013 102 7 -0.358962 9.21867689790215 8.85000403702595 9.952882541157168 -3 3 -2
176 18 2 -0.091672 4.31160994907717 5.159702610798339 9.709611703282253 -2 -1 1
177 18 5 0.404798 3.19297314748268 5.860587257653117 10.1254022460777 -2 -1 1
308 31 6 0.404798 1.7604101593538242 9.498601783569946 10.530023778831968 -2 1 -3
1474 148 4 0.404798 12.703369430956892 9.42894830300902 14.04211631805017 0 2 -2
705 71 8 -0.358962 10.919704916208582 6.564414689264811 12.892017494624705 2 0 0
179 18 9 -0.358962 2.238545419329551 6.451129477216895 10.420914949453707 -2 -1 1
869 87 9 -0.358962 3.387155751124511 1.185308771501193 12.099890242953476 -3 2 -1
796 80 2 -0.091672 6.888890747088935 8.281924887179265 12.403954134408988 0 0 -4
792 80 3 0.404798 5.247616198074861 8.452705117178972 10.563149982732224 0 0 -4
1018 102 6 0.404798 6.529912546937865 9.491043273065618 7.8528660088114 -3 3 -2
793 80 7 -0.358962 4.746859391718888 8.110797776728258 9.551494904273342 0 0 -4
706 71 2 -0.091672 12.344841532087608 6.774863855579712 9.760219399096364 2 0 0
791 80 1 -0.091672 5.729813548029752 8.736952620179506 11.908558775609281 0 0 -4
658 66 6 0.404798 10.63563327610227 4.788200076909611 14.873421451617988 -2 -2 0
866 87 2 -0.091672 3.877903717282374 1.1209515684209281 14.635455385625841 -3 2 -1
660 66 10 -0.358962 10.399172016295806 4.0324760334986305 14.006251214687765 -2 -2 0
75 8 8 -0.358962 8.299497010378712 1.0734636918081137 10.455780795853968 4 -1 0
172 18 3 0.404798 6.345722379320827 3.8577897587912635 9.966888649608206 -2 -1 1
175 18 8 -0.358962 4.474454497531874 4.15216252184382 12.983248741565616 -2 -1 1
800 80 10 -0.358962 8.29488520148972 6.658327476737748 10.968445632334316 0 0 -4
609 61 9 -0.358962 12.151277650787739 0.386919929280659 9.37268569949279 2 1 0
173 18 7 -0.358962 7.307961100499984 3.4068480192619415 9.553299797657337 -2 -1 1
1434 144 4 0.404798 1.1018267014078267 4.105708077298523 13.161514754491757 0 3 1
864 87 4 0.404798 6.222011313115794 1.8573526745235789 14.541103858255294 -3 2 -1
310 31 10 -0.358962 2.8461611344902775 9.657378081426131 10.21699477790724 -2 1 -3
865 87 8 -0.358962 7.119559834590957 2.4425616664588934 14.067621996118904 -3 2 -1
707 71 5 0.404798 12.618238274413969 8.124948208920141 10.148566653519945 2 0 0
797 80 5 0.404798 7.410180142771142 8.67189627628019 13.696006858173085 0 0 -4
168 17 6 0.404798 2.1114921556312707 0.8426490827068347 8.086207566634473 2 2 0
174 18 4 0.404798 4.8490333478944265 4.268109389832552 11.887886522089508 -2 -1 1
579 58 9 -0.358962 5.011223309900154 2.4007934194012317 8.108959954721204 1 0 0
1435 144 8 -0.358962 1.861861574649512 3.3899367851348994 13.619843780288166 0 3 1
607 61 5 0.404798 11.896253245577977 0.8679475876964858 8.333215530447058 2 1 0
799 80 9 -0.358962 7.858105567329733 8.900459300239977 14.753209746386386 0 0 -4
1012 102 3 0.404798 8.762402544840418 8.341195144214288 9.002830592200219 -3 3 -2
794 80 4 0.404798 4.896125097887279 9.693716354334061 12.67758301858488 0 0 -4
812 82 3 0.404798 2.6954530526018363 7.39343130749106 13.871612690856123 4 -1 0
798 80 6 0.404798 7.75253515819414 7.353441284148606 11.695427749952545 0 0 -4
1207 121 5 0.404798 10.386711961692326 1.190036086063798 13.22529649511674 -1 1 -2
170 17 10 -0.358962 2.0065131489320827 0.15601783625029272 8.945544094790964 2 2 0
1225 123 8 -0.358962 14.816864648904513 4.213840089677761 11.198198768054663 2 3 0
1103 111 7 -0.358962 7.2669831915219545 5.644669382902226 13.710756545263703 1 1 -1
1204 121 4 0.404798 12.969920176258412 1.0221748417758256 14.5687901028181 -1 1 -2
162 17 3 0.404798 1.24929866056102 3.4999174418059327 8.039441455269978 2 2 0
1472 148 3 0.404798 14.585875526372979 8.057226287837103 14.719221004586815 0 2 -2
1011 102 1 -0.091672 8.019653418195128 7.69333395202455 7.939911125846226 -3 3 -2
1102 111 3 0.404798 7.065989564418064 5.638629554351972 14.816036042055469 1 1 -1
818 82 6 0.404798 1.7331146518595384 9.979854212891325 14.804528772630576 4 -1 0
1206 121 2 -0.091672 10.54804602939522 0.6304740582592023 14.577678956024473 -1 1 -2
1395 140 8 -0.358962 2.7081654366774517 6.095427177511141 20.207258018457317 -1 0 1
969 97 9 -0.358962 5.656305297338742 0.8537602098215206 21.648628424644844 1 1 2
1476 148 2 -0.091672 13.120363369731022 9.091726450396395 16.401719082809656 0 2 -2
1480 148 10 -0.358962 14.84796531722007 8.398410565540933 18.146194223846194 0 2 -2
239 24 9 -0.358962 13.177854049372899 4.400973292361207 20.658247383107614 0 1 3
1201 121 1 -0.091672 11.753158283088625 0.596781927226214 15.219909278695448 -1 1 -2
653 66 7 -0.358962 14.054811681506232 3.886103156483909 15.16789047633581 -2 -2 0
863 87 7 -0.358962 5.097693137347055 1.3985776199671878 17.833073103930925 -3 2 -1
1104 111 4 0.404798 7.463302182482626 4.740371663709133 17.089592044464993 1 1 -1
211 22 1 -0.091672 8.686570147104065 8.461527726408816 21.32529175454174 -1 -1 2
817 82 5 0.404798 1.7905406084374225 9.060620186876019 17.07025298635176 4 -1 0
1105 111 8 -0.358962 8.12185672847688 4.007565319997927 17.763899062127383 1 1 -1
212 22 3 0.404798 8.360706712890467 9.113677285575328 20.109367248364478 -1 -1 2
1110 111 10 -0.358962 5.028808958833882 8.49602686672168 15.141185687311921 1 1 -1
659 66 9 -0.358962 9.321526605945726 7.099369793821504 17.253340169570105 -2 -2 0
1478 148 6 0.404798 14.072237993983874 8.6986646100234 17.369517603962922 0 2 -2
1202 121 3 0.404798 11.98917817066895 0.1564334078885075 16.546760040241654 -1 1 -2
1108 111 6 0.404798 5.53857765629654 7.726229742609355 15.915625032766116 1 1 -1
815 82 8 -0.358962 3.017985427082312 5.82784970389694 16.932783305372908 4 -1 0
651 66 1 -0.091672 12.386269062089864 5.472774176204582 16.301692231903733 -2 -2 0
1394 140 4 0.404798 3.2289908365492943 5.6055164575324365 21.079018805780553 -1 0 1
231 24 1 -0.091672 10.307526014009225 2.5726150464706032 20.5226170504373 0 1 3
811 82 1 -0.091672 2.3445516585366675 7.660322258855933 15.192837693018294 4 -1 0
213 22 7 -0.358962 8.150925091802518 9.64666998214721 19.071452151700424 -1 -1 2
657 66 5 0.404798 10.11727622990643 6.4795395013839014 16.630318741813426 -2 -2 0
214 22 4 0.404798 8.464755775758084 7.0775188704691665 21.338076420391634 -1 -1 2
1208 121 6 0.404798 9.361627585458562 0.46131122862080426 15.335267882157966 -1 1 -2
819 82 9 -0.358962 1.7302988835748903 9.408899627675547 18.163362914125983 4 -1 0
862 87 3 0.404798 5.164662394281201 1.4101223417257591 16.664863507013617 -3 2 -1
238 24 6 0.404798 11.247436202645106 2.774300617502315 18.278610885722127 0 1 3
234 24 4 0.404798 10.188190359087683 2.656868777921902 21.994377244441008 0 1 3
1107 111 5 0.404798 5.991307802896443 6.948132276624892 18.11916832758858 1 1 -1
1101 111 1 -0.091672 6.830059048351504 5.746622755539551 16.247914355375944 1 1 -1
654 66 4 0.404798 12.851955416740493 6.149291971804332 17.54741314322728 -2 -2 0
1399 140 9 -0.358962 1.2166654843385512 2.772699212952318 22.4016890541324 -1 0 1
1387 139 5 0.404798 0.2657934466643166 0.6497255937973085 19.790222136033588 0 3 2
1391 140 1 -0.091672 3.999620205493629 4.8480872641797665 22.032586472881835 -1 0 1
215 22 8 -0.358962 8.142509497593934 5.936140402828642 21.239849736701366 -1 -1 2
1390 139 10 -0.358962 2.3414811403204667 3.368408449146232 18.992482291486827 0 3 2
814 82 4 0.404798 2.677729365634203 6.6223357730709935 16.14527789673766 4 -1 0
318 32 6 0.404798 3.521923428913042 9.168364476572402 21.35620792831062 1 2 -1
1109 111 9 -0.358962 5.8747338324463785 7.201490377938749 19.246317272051392 1 1 -1
1106 111 2 -0.091672 6.1331021295351755 6.760436851585492 16.746737855793086 1 1 -1
656 66 2 -0.091672 11.093015000628185 5.611860190705334 15.939715419935391 -2 -2 0
240 24 10 -0.358962 11.163941218767185 2.5628451573318753 17.147055631995993 0 1 3
816 82 2 -0.091672 2.0299397104907957 8.857498295736002 15.64278873080732 4 -1 0
1388 139 6 0.404798 1.4339560946822807 2.6386877698529294 18.975611231037377 0 3 2
1397 140 5 0.404798 2.2615862385600023 3.251287775865419 22.46559696828119 -1 0 1
233 24 7 -0.358962 8.297097976943995 1.2019673058965554 19.523185287831883 0 1 3
232 24 3 0.404798 9.194389458265904 1.7899973522585941 19.967268627532132 0 1 3
237 24 5 0.404798 12.363503014144248 3.7318332088392148 20.233355481311094 0 1 3
236 24 2 -0.091672 11.290686500793605 2.980289197877112 19.735515841563 0 1 3
320 32 10 -0.358962 3.475872923302386 8.96940396228657 20.216578340358744 1 2 -1
861 87 1 -0.091672 5.06457358619463 1.4601044521151534 15.216557516089148 -3 2 -1
1148 115 6 0.404798 13.091033469729972 8.89050210375972 20.613304854950304 0 -5 -2
1150 115 10 -0.358962 13.194317702137562 7.804507327418401 21.073818135501043 0 -5 -2
655 66 8 -0.358962 13.133769480293548 6.87681241115198 18.474534476321292 -2 -2 0
1386 139 2 -0.091672 0.20081597765435508 1.8195529031248514 19.01014660134469 0 3 2
870 87 10 -0.358962 1.8289308380445042 0.3121232931889374 15.83509182409332 -3 2 -1
652 66 3 0.404798 13.257544671575792 4.500477125501555 15.70569529493291 -2 -2 0
216 22 2 -0.091672 9.34264857403761 9.079722091301925 22.37404037405006 -1 -1 2
1477 148 5 0.404798 12.06390146201691 9.901059670518785 16.84329411396305 0 2 -2
1210 121 10 -0.358962 8.449334542680997 0.30874093193071844 16.023740632789128 -1 1 -2
1392 140 3 0.404798 5.195772012046499 5.4686030620385875 22.47612854735888 -1 0 1
868 87 6 0.404798 2.7440543159276443 0.6966921350766785 15.25258659209297 -3 2 -1
1471 148 1 -0.091672 13.431683117293808 8.835379654891344 15.092721043594615 0 2 -2
359 36 9 -0.358962 0.09136519112655571 6.664903355177608 17.994701402625278 -3 2 -1
917 92 5 0.404798 7.396913421443649 3.54685929433782 25.191742274483094 -2 3 -3
1393 140 7 -0.358962 6.159711891966946 6.002130185515814 22.738913346045276 -1 0 1
915 92 8 -0.358962 5.270188176691868 5.089437849337097 27.686838665239282 -2 3 -3
217 22 5 0.404798 9.723310593274881 8.37037882646767 23.55336975628863 -1 -1 2
912 92 3 0.404798 6.103595047209277 1.9033795256171335 28.40665499699569 -2 3 -3
504 51 4 0.404798 1.0933053345058774 0.6782245413413787 27.189322288873193 -1 1 -1
739 74 9 -0.358962 14.695647958295185 9.728469602456576 23.10822543207918 -1 -2 0
826 83 2 -0.091672 7.899058962761025 8.091906558164931 29.07585302999021 -2 -3 0
119 12 9 -0.358962 13.67804966451843 9.796938129219102 26.300026371916896 0 -6 1
317 32 5 0.404798 2.4781166275143836 9.18009633626287 23.51470961200068 1 2 -1
139 14 9 -0.358962 3.9048093348805835 8.313576748811906 27.536081678521608 1 -3 -4
1070 107 10 -0.358962 12.587357375923322 1.2878987840224156 24.36589273503496 0 -1 4
822 83 3 0.404798 9.114519814234507 9.296802136354229 27.358159685148596 -2 -3 0
1398 140 6 0.404798 4.238142043278622 3.0930106528370325 23.67948327892437 -1 0 1
918 92 6 0.404798 7.704862610715496 1.3307487263875855 26.044213584238832 -2 3 -3
134 14 4 0.404798 0.3056613429240292 7.800534180456193 28.357983200055244 1 -3 -4
1396 140 2 -0.091672 3.5202663065779896 3.833073525023877 22.71497361035309 -1 0 1
219 22 9 -0.358962 9.96358185991415 7.677025552325555 24.484699527783672 -1 -1 2
505 51 8 -0.358962 1.490065595757818 1.306316421550811 26.269862449409906 -1 1 -1
825 83 8 -0.358962 8.173889547864452 6.1973054091910225 26.04815785110016 -2 -3 0
111 12 1 -0.091672 12.993762084739787 6.701015476515666 27.330536311701852 0 -6 1
914 92 4 0.404798 5.81415891544844 4.079901073857471 27.514257271025986 -2 3 -3
140 14 10 -0.358962 2.5477811016499943 4.6100232212478645 25.44782493484607 1 -3 -4
587 59 5 0.404798 2.3093678011771748 3.6606971509023714 28.905834006920557 0 1 -3
118 12 6 0.404798 12.289999180934885 8.10055302133252 29.115324528588822 0 -6 1
1061 107 1 -0.091672 10.591350004245719 2.3711045493658887 27.07897393655159 0 -1 4
828 83 6 0.404798 8.041457328559002 9.181145610205345 29.90295191302599 -2 -3 0
137 14 5 0.404798 3.014838866102505 7.536228924606006 27.377810416539482 1 -3 -4
136 14 2 -0.091672 1.9600687619688923 6.589807012474529 27.055295818479916 1 -3 -4
235 24 8 -0.358962 10.097391859683707 2.8410762805209577 23.119419983548863 0 1 3
1066 107 2 -0.091672 11.218746989115415 2.818293938773106 25.942358296532426 0 -1 4
821 83 1 -0.091672 8.467695476357619 8.118010131715602 27.817784531602687 -2 -3 0
131 14 1 -0.091672 0.6942521848238735 6.744272198460706 27.478828647771152 1 -3 -4
824 83 4 0.404798 8.338161670832395 7.0025750716202975 26.901789383750796 -2 -3 0
1065 107 8 -0.358962 9.13263443991833 3.7866106242034587 28.642244791010032 0 -1 4
501 51 1 -0.091672 0.3885630890961312 0.1499959909205689 28.242071675605114 -1 1 -1
138 14 6 0.404798 2.269411346093092 5.45915224281116 26.227829063680236 1 -3 -4
1068 107 6 0.404798 11.930269703013497 1.953740471947092 25.11043746614205 0 -1 4
913 92 7 -0.358962 5.961528169454709 1.2777488626879527 29.357871085169776 -2 3 -3
911 92 1 -0.091672 6.444654043823501 2.8480644687303642 27.399118216395912 -2 3 -3
589 59 9 -0.358962 1.7690160546132419 3.7161957004995108 27.88795023427803 0 1 -3
1069 107 9 -0.358962 11.132374343323448 5.364219209703157 25.518659848219492 0 -1 4
1067 107 5 0.404798 11.177807843559918 4.197812264877525 25.639078763795197 0 -1 4
1400 140 10 -0.358962 4.860142781525053 2.7051878079361744 24.53887394318183 -1 0 1
112 12 3 0.404798 12.403603712313709 5.513320019919601 27.8687189481324 0 -6 1
1062 107 3 0.404798 10.686039308023943 1.0207525723376762 27.50793444457462 0 -1 4
114 12 4 0.404798 13.46683339380103 6.503260144659754 25.99424461348564 0 -6 1
116 12 2 -0.091672 12.86858087402244 7.918830882458698 27.81502266323743 0 -6 1
1064 107 4 0.404798 9.812479290102843 3.1752550153523114 27.924242349584503 0 -1 4
919 92 9 -0.358962 7.719728218072653 4.269639407787208 24.36227167109234 -2 3 -3
115 12 8 -0.358962 13.854146551099392 6.37516052638284 24.92443399008976 0 -6 1
920 92 10 -0.358962 8.32986383245498 0.3317854142684962 25.82098302695646 -2 3 -3
916 92 2 -0.091672 7.0728647934558495 2.593113373554002 26.221149591434614 -2 3 -3
113 12 7 -0.358962 11.940140431372622 4.487868732389686 28.233155338603154 0 -6 1
117 12 5 0.404798 13.263838058273988 8.958540899242418 26.958338977412385 0 -6 1
585 59 8 -0.358962 3.3312383482998214 0.298728839137095 29.165881723004453 0 1 -3
319 32 9 -0.358962 1.4247279431208237 9.032352558175045 24.002398733626492 1 2 -1
1554 156 4 0.404798 14.638087637160057 2.7791236138490314 28.516960081012126 -2 5 -2
584 59 4 0.404798 3.436086121618117 1.268129743507071 29.745401073103594 0 1 -3
316 32 2 -0.091672 3.6327858551141152 9.451252370441459 22.73343174510996 1 2 -1
827 83 5 0.404798 7.303261202408066 6.979835783011389 29.685687444068215 -2 -3 0
135 14 8 -0.358962 0.08593578604856604 8.608879722854418 29.183984227924864 1 -3 -4
1555 156 8 -0.358962 13.952976447218106 2.197596526627963 29.23744618107212 -2 5 -2
141 15 1 -0.091672 1.4783570333743532 15.691505233851045 3.51658373763184 1 0 0
830 83 10 -0.358962 8.21535568590976 10.094745548251334 0.5593268451279704 -2 -3 1
395 40 8 -0.358962 2.65916241401967 17.774160577645553 5.211120717180614 -1 1 1
392 40 3 0.404798 5.802937133728276 19.141426884090166 6.0277807888366475 -1 1 1
686 69 2 -0.091672 13.21238603720972 16.065359673647034 4.253459484448983 -4 1 -2
1491 150 1 -0.091672 10.606748772023368 13.332297250640135 1.3312406687130065 1 2 2
1422 143 3 0.404798 2.730669439152058 10.753587384662271 6.6522719962538694 -1 -5 2
145 15 8 -0.358962 2.4537263773190534 13.937509978884137 1.9254006493306095 1 0 0
373 38 7 -0.358962 7.124083385938262 15.908701433086927 1.4240871058631788 1 0 -3
559 56 9 -0.358962 9.852646177383864 19.681066267770987 0.2033957120218665 2 0 6
146 15 2 -0.091672 0.9534677905326927 16.83853224621613 3.026609233779591 1 0 0
617 62 5 0.404798 11.783840058448837 12.986109639337103 5.785359509056879 0 3 0
689 69 9 -0.358962 12.855131951122253 15.521779702792733 6.792415099447421 -4 1 -2
465 47 8 -0.358962 3.0123864216061844 12.232490021208767 3.9807214435198466 2 -1 4
1423 143 7 -0.358962 3.807504667373226 10.704424875725516 6.314375071285828 -1 -5 2
148 15 6 0.404798 0.2247624909752464 17.713258433504606 3.91638065900863 1 0 0
1496 150 2 -0.091672 10.918607937043353 13.858221261689108 0.1753620315285312 1 2 2
461 47 1 -0.091672 5.202988839370162 13.624322149321719 3.7119743875420936 2 -1 4
463 47 7 -0.358962 6.667519526475946 12.764672161686065 1.7141340535307121 2 -1 4
649 65 9 -0.358962 0.23396429351166548 12.135000881197021 2.1824441092915086 0 -1 -4
1493 150 7 -0.358962 9.393447544595121 14.793593109280593 3.0431498159074843 1 2 2
611 62 1 -0.091672 13.9341411234265 11.877463837500093 5.686753690427818 0 3 0
468 47 6 0.404798 6.6073919170483855 15.49476300867237 4.245336381598835 2 -1 4
683 69 7 -0.358962 13.036943119824999 17.52893222767583 1.0383717028205355 -4 1 -2
1495 150 8 -0.358962 10.811749695310073 10.766826434814206 1.686214170694024 1 2 2
467 47 5 0.404798 4.6711002472395675 15.01603501265649 5.560345509926461 2 -1 4
690 69 10 -0.358962 14.875539735884077 14.535202068347955 3.0150797701260923 -4 1 -2
394 40 4 0.404798 3.7267892648131857 18.18718045070961 5.049873331189076 -1 1 1
464 47 4 0.404798 3.97066325270228 12.935253247595387 3.9206533880369787 2 -1 4
619 62 9 -0.358962 10.777548285894893 13.411768735848327 5.283227543368265 0 3 0
682 69 3 0.404798 12.87215400072123 17.323873773297073 2.175321904998098 -4 1 -2
391 40 1 -0.091672 5.091770348294679 18.682840051340836 4.868545851825076 -1 1 1
685 69 8 -0.358962 11.01593341285962 18.677638530701486 4.709689015715437 -4 1 -2
469 47 9 -0.358962 4.001731272787315 15.23426468046445 6.436274361705426 2 -1 4
681 69 1 -0.091672 12.613995259019177 17.055904667604505 3.5539651131026297 -4 1 -2
143 15 7 -0.358962 1.0325563268458242 14.944847942375088 5.972255737438954 1 0 0
470 47 10 -0.358962 7.5903704429749865 16.094159131640744 4.107855950748145 2 -1 4
614 62 4 0.404798 13.883730533126341 11.774318184295232 4.302940104630551 0 3 0
688 69 6 0.404798 14.169313179345728 15.246114241741893 3.6022192202359404 -4 1 -2
203 21 7 -0.358962 7.598083219169703 12.415080983609025 6.804415790360499 1 0 2
1492 150 3 0.404798 9.9238237631852 14.082849024296811 2.3096100012601157 1 2 2
399 40 9 -0.358962 4.937568928948479 18.15001790959871 1.4078340312094444 -1 1 1
393 40 7 -0.358962 6.317877808466588 19.45558320136482 7.0202398601467895 -1 1 1
396 40 2 -0.091672 5.725154005068906 18.869945107940993 3.70497874957068 -1 1 1
1421 143 1 -0.091672 1.387441027223704 10.834730235219299 7.238079325580764 -1 -5 2
616 62 2 -0.091672 13.00834972075059 12.607044871643675 6.28669431014951 0 3 0
401 41 1 -0.091672 3.460748195233515 10.380641281354613 0.43195245513094116 -2 -2 -3
466 47 2 -0.091672 5.4649814814437745 14.664489830328293 4.494981082525692 2 -1 4
1494 150 4 0.404798 10.70053371050997 11.88806060223053 1.4646192733401528 1 2 2
647 65 5 0.404798 0.24447896101764954 12.76870139181041 1.2312726715439861 0 -1 -4
397 40 5 0.404798 5.243576277857429 18.44612022449714 2.4557338639902238 -1 1 1
202 21 3 0.404798 8.427493936235358 11.580358219059367 6.717036682896663 1 0 2
144 15 4 0.404798 2.0622214449554948 14.751085806784568 2.6236315185420547 1 0 0
462 47 3 0.404798 6.046606614780718 13.19272848477629 2.610653702719124 2 -1 4
398 40 6 0.404798 7.0908598996844825 19.317895711879476 3.657993478343109 -1 1 1
142 15 3 0.404798 1.26080735952538 15.363548586479238 4.924594285228478 1 0 0
684 69 4 0.404798 11.687970628561834 17.902756176831183 4.160117927814353 -4 1 -2
687 69 5 0.404798 13.027211465153227 15.73051184387716 5.615273076211167 -4 1 -2
615 62 8 -0.358962 13.869623952472386 11.644668506297084 3.127059209054859 0 3 0
400 40 10 -0.358962 8.20211817191292 19.69460592251562 3.6488405243073543 -1 1 1
147 15 5 0.404798 1.0191197603547848 17.127185490525015 1.6344752747470421 1 0 0
335 34 8 -0.358962 14.0890499195353 18.1041166001149 6.756350218159826 -1 -2 4
201 21 1 -0.091672 9.439324898602012 10.64066556661998 6.657212365541092 1 0 2
372 38 3 0.404798 7.349612040044758 16.151545748216137 0.30517548211477447 1 0 -3
149 15 9 -0.358962 1.0115998904734642 17.465233520380867 0.5385919932655577 1 0 0
210 21 10 -0.358962 7.772116265651844 10.192914230511224 3.6805890425894954 1 0 2
404 41 4 0.404798 4.60250809202591 10.079039630201567 1.1532818545009418 -2 -2 -3
759 76 9 -0.358962 14.15813738793081 15.157383209528083 0.2833571342709105 0 -1 0
1371 138 1 -0.091672 11.095926419121348 13.390084823124907 10.909193243366149 0 1 4
834 84 4 0.404798 2.0817476499958443 16.23401054495341 14.978141101077187 -1 0 -4
1585 159 8 -0.358962 13.805150694023716 13.864177134680777 13.802226617317077 0 1 2
261 27 1 -0.091672 5.155163402991078 18.615754382578007 12.400205604918767 -1 3 5
331 34 1 -0.091672 13.0854454924441 18.595644072994794 9.02863132412572 -1 -2 4
1318 132 6 0.404798 6.127085514225044 13.412126223855873 12.542678311173207 2 1 1
803 81 7 -0.358962 9.264944271583742 15.688035433031526 14.159574321697777 0 1 3
1425 143 8 -0.358962 0.720241106666494 13.17966311992845 8.170898431641849 -1 -5 2
1372 138 3 0.404798 12.236452616414446 12.65219521158972 11.360164005475426 0 1 4
1379 138 9 -0.358962 8.954527599104663 15.77483084682426 9.758809470922568 0 1 4
109 11 9 -0.358962 1.6091993997802316 18.5753221135532 12.734913638811769 3 6 -4
270 27 10 -0.358962 7.386662332280869 15.926371175386215 11.960705313348543 -1 3 5
1312 132 3 0.404798 6.61966346104122 13.609934902105904 9.908801990401951 2 1 1
820 82 10 -0.358962 1.4175259312600705 10.959121138142008 14.197724079324495 4 -1 0
266 27 2 -0.091672 5.675279126225272 17.796645755763137 11.45856922338702 -1 3 5
334 34 4 0.404798 13.622900543672804 18.25882262062338 7.805287766623635 -1 -2 4
263 27 7 -0.358962 6.034248140733413 18.713949946079143 14.811799612966706 -1 3 5
333 34 7 -0.358962 14.831839871681606 19.60163196356854 10.668620723406429 -1 -2 4
795 80 8 -0.358962 4.252204601876927 10.474493957711323 13.263246519354343 0 0 -4
835 84 8 -0.358962 1.1064848533648852 15.843109798423919 14.46658565521656 -1 0 -4
262 27 3 0.404798 5.56591483250528 18.682197568846338 13.738771637218717 -1 3 5
1315 132 8 -0.358962 3.3530496407926504 14.151868766502247 8.623800587516065 2 1 1
302 31 3 0.404798 0.23527393304764296 11.592635064563918 11.626368840927222 -2 1 -3
1374 138 4 0.404798 9.85233450830719 12.694161402883022 11.036550336487753 0 1 4
340 34 10 -0.358962 10.85331428543808 18.467498954055085 11.748524026644931 -1 -2 4
337 34 5 0.404798 10.877071481564737 17.844388935971917 8.33260792240049 -1 -2 4
1380 138 10 -0.358962 13.399983235314984 15.980792938159619 10.334092032973617 0 1 4