LAMMPS data file via write_data, version 29 Sep 2021, timestep = 2000000

1800 atoms
20 atom types
1620 bonds
9 bond types
1800 angles
10 angle types
2160 dihedrals
12 dihedral types

0 31.428 xlo xhi
0 31.428 ylo yhi
0 31.428 zlo zhi
3.552713678800501e-15 3.552713678800501e-15 3.552713678800501e-15 xy xz yz

Masses

1 12.01
2 12.01
3 12.01
4 12.01
5 12.01
6 12.01
7 14.01
8 14.01
9 14.01
10 14.01
11 0.0001
12 0.0001
13 0.0001
14 0.0001
15 0.0001
16 0.0001
17 0.0001
18 0.0001
19 0.0001
20 0.0001

Bond Coeffs # harmonic

1 400 1.426
2 400 1.426
3 400 1.426
4 400 1.426
5 549 1.34
6 650 1.16
7 650 1.16
8 650 1.16
9 650 1.16

Angle Coeffs # harmonic

1 70 116.8
2 70 116.8
3 70 121.6
4 70 121.6
5 70 121.6
6 70 121.6
7 70 178.9
8 70 178.9
9 70 178.9
10 70 178.9

Dihedral Coeffs # opls

1 0 0 0 0
2 0 0 0 0
3 0 0 0 0
4 0 0 0 0
5 0 0 0 0
6 0 0 0 0
7 0 0 0 0
8 0 0 0 0
9 0 14 0 0
10 0 14 0 0
11 0 14 0 0
12 0 14 0 0

Atoms # full

196 20 2 -0.091672 6.292075290924468 8.752712424904797 7.15920238901372 0 -4 -1
267 27 5 0.404798 3.2215231895003873 6.4217715900703976 1.7350662001772208 -2 0 2
1637 164 5 0.404798 10.28880950036453 5.516392708259092 3.990754440434217 2 0 1
1638 164 6 0.404798 8.352079791691745 6.3862709315743915 2.7170744674058778 2 0 1
197 20 5 0.404798 5.711862954095628 7.999977562426429 6.137779636004464 0 -4 -1
717 72 5 0.404798 13.243328649815743 8.84226097783339 0.5839880405532799 -1 1 3
1290 129 10 -0.358962 5.990168295396028 4.963237388432933 5.406639864009698 1 -2 -1
322 33 3 0.404798 0.39774290112506877 0.5484586951907728 6.870092963140675 2 0 -2
262 27 3 0.404798 1.6136994912903668 3.1614314052944237 1.0449954627246323 -2 0 2
385 39 8 -0.358962 2.026614240834534 9.50576221962754 0.9056562886823807 -1 -1 4
384 39 4 0.404798 0.8938649157909037 9.749312370511428 0.7508047716309179 -1 -1 4
1284 129 4 0.404798 3.771421937188776 0.7099428239587651 5.605217721492667 1 -2 -1
1640 164 10 -0.358962 7.245843771611063 6.66406587146815 2.5546184178316813 2 0 1
194 20 4 0.404798 7.8857848674336095 7.026401376144377 7.378189060668631 0 -4 -1
376 38 2 -0.091672 2.142118698518088 7.256717885956934 7.609582165025359 3 -1 -2
1635 164 8 -0.358962 13.06786520568204 5.781065084715873 1.6712773573005513 2 0 1
1286 129 2 -0.091672 5.431192494968802 2.445698049392432 5.5807481901107465 1 -2 -1
1559 156 9 -0.358962 10.298377781716411 2.0797480835991933 2.820865177708768 0 -1 0
198 20 6 0.404798 5.78497022083814 10.023529060569969 7.4023339023435675 0 -4 -1
265 27 8 -0.358962 5.0371384665724035 3.4829690824168824 0.848312614553409 -2 0 2
714 72 4 0.404798 13.79716877915438 8.418889820648857 3.3399781730640137 -1 1 3
1288 129 6 0.404798 5.803929267745636 3.834985976610735 5.538593739114629 1 -2 -1
719 72 9 -0.358962 12.113177811739156 9.024404156175468 0.22675648321458608 -1 1 3
371 38 1 -0.091672 1.7657258372000264 8.095770665978485 6.5906064317953685 3 -1 -2
261 27 1 -0.091672 2.6003900314413193 4.142649553063125 1.2611062904231947 -2 0 2
173 18 7 -0.358962 3.975996549947729 9.886829467018057 3.86202629538127 5 1 -1
243 25 7 -0.358962 10.240361398130512 0.5077243952556899 7.058075560026254 -1 2 2
997 100 5 0.404798 11.722070462423895 8.416202996113665 6.497053584294152 1 -5 2
215 22 8 -0.358962 1.6722869184747255 1.2385987431748007 3.6565630325072997 0 -3 -1
1289 129 9 -0.358962 7.517095282276747 0.8757670928926603 5.993037054146868 1 -2 -1
439 44 9 -0.358962 10.261710543526236 9.357701442597811 4.098756631494287 -2 2 -2
191 20 1 -0.091672 7.3664260997604245 8.28371163470791 7.726822366207037 0 -4 -1
199 20 9 -0.358962 5.276420708792069 7.443278016054674 5.223709551910793 0 -4 -1
1639 164 9 -0.358962 10.689743822353362 5.131505401589151 4.965170541638474 2 0 1
434 44 4 0.404798 7.862164261841543 9.96948174436943 1.8692648890888772 -2 2 -2
264 27 4 0.404798 3.9253462343413275 3.8468590270409413 1.0623060714533759 -2 0 2
214 22 4 0.404798 0.666178642038391 1.7701553628617275 3.7349502386819453 0 -3 -1
715 72 8 -0.358962 12.763935013908958 8.3023079756813 3.8325236754462946 -1 1 3
1634 164 4 0.404798 11.93815665644244 6.035249058049147 1.6538287291453622 2 0 1
1287 129 5 0.404798 6.596950678298625 1.5427888397284213 5.728240945202887 1 -2 -1
1557 156 5 0.404798 11.108817169890397 1.405331811926229 2.3370802798159205 0 -1 0
269 27 9 -0.358962 3.9495523402617714 7.357705799322184 1.7488012416456802 -2 0 2
1555 156 8 -0.358962 13.98891747015283 2.690299233803349 3.855796793969258 0 -1 0
195 20 8 -0.358962 8.29333017634058 5.986126683994445 7.11446552202449 0 -4 -1
1556 156 2 -0.091672 12.11117421770654 0.5925389656122051 1.7536810299128573 0 -1 0
266 27 2 -0.091672 2.2271916263781355 5.370132442948948 1.5885436510713864 -2 0 2
1554 156 4 0.404798 13.730457276159024 1.8161142083223203 3.1296572963877827 0 -1 0
1551 156 1 -0.091672 13.336294493409161 0.7762605039981697 2.2610615331774064 0 -1 0
1281 129 1 -0.091672 4.116225220090271 2.0637992062293504 5.597267849377452 1 -2 -1
1282 129 3 0.404798 3.0250239556707603 3.0159754864548565 5.483406020942585 1 -2 -1
268 27 6 0.404798 0.8766042689267717 5.789697749921651 1.6412495780559841 -2 0 2
1631 164 1 -0.091672 10.543651466624713 6.339227583726024 1.7045596467950053 2 0 1
372 38 3 0.404798 2.2119981252441887 9.422282258882584 6.544859197527734 3 -1 -2
996 100 2 -0.091672 12.715052502066333 9.27282436702584 7.129634219129144 1 -5 2
853 86 7 -0.358962 10.03900119191032 3.8802120441003707 0.4002518073568023 -2 0 0
1636 164 2 -0.091672 9.797034234449468 6.141468749784627 2.778281725380702 2 0 1
250 25 10 -0.358962 12.859624048329833 3.442026968833104 6.92707008324699 -1 2 2
437 44 5 0.404798 10.204925638001024 10.036603313252604 3.1773990909329184 -2 2 -2
94 10 4 0.404798 7.512689153084951 2.0607768567807856 1.3445203757830515 0 1 0
716 72 2 -0.091672 14.5566258087352 8.805933162133854 1.0706330908386805 -1 1 3
1283 129 7 -0.358962 2.101828926467957 3.723431889183152 5.452233684628359 1 -2 -1
435 44 8 -0.358962 7.0280328519200195 9.262828761354928 2.2868093418149043 -2 2 -2
374 38 4 0.404798 0.6877248642420669 7.720125718233668 5.763446932825823 3 -1 -2
95 10 8 -0.358962 7.953344015230004 2.8923245348883952 2.038939750494315 0 1 0
999 100 9 -0.358962 10.900900260462544 7.702078787423592 6.070451507543588 1 -5 2
91 10 1 -0.091672 7.239746348211835 1.0322641246841595 0.39921356124883617 0 1 0
263 27 7 -0.358962 0.8307614852266864 2.3192050884910884 0.7602215014180348 -2 0 2
711 72 1 -0.091672 14.801786789996939 8.66904219450781 2.3774277271545836 -1 1 3
1632 164 3 0.404798 9.918431256183888 6.947145598337041 0.6360211089763546 2 0 1
718 72 6 0.404798 15.647898792647984 8.909675188877653 0.15668764920663128 -1 1 3
1552 156 3 0.404798 14.396969682938488 0.056888899509242634 1.8075323716153293 0 -1 0
377 38 5 0.404798 1.5697950668997844 5.965076344311175 7.762740286568265 3 -1 -2
1158 116 6 0.404798 3.1429736500076064 9.111682289210712 14.32447712238749 0 3 3
1227 123 5 0.404798 10.490255408633207 0.0442870791126027 15.15938573049167 2 4 0
202 21 3 0.404798 11.14844560255561 6.339088221128324 15.104932211199817 -1 -5 3
328 33 6 0.404798 2.4780616505550026 1.5481800488397761 8.427373426520036 2 0 -2
326 33 2 -0.091672 1.138661910737796 1.9311449359278177 8.739650242528466 2 0 -2
321 33 1 -0.091672 0.17658029034317793 1.4258458312379594 7.992737035310781 2 0 -2
1425 143 8 -0.358962 6.738869268479101 3.677737770536769 13.973302914493559 4 -1 1
1334 134 4 0.404798 14.916098374500466 5.071839452965533 9.15022915793784 -2 1 0
1433 144 7 -0.358962 6.941039763421072 2.4048275525443263 9.053431790133125 3 1 1
1150 115 10 -0.358962 4.557699570411296 7.559573175909567 12.19140294675575 -2 1 7
1157 116 5 0.404798 1.9507088687809397 10.085924558189719 12.453733577057067 0 3 3
1431 144 1 -0.091672 4.806071329401293 1.708080733728987 10.459266209257576 3 1 1
1434 144 4 0.404798 4.8413179120659935 0.36435108755527995 10.921189168650676 3 1 1
380 38 10 -0.358962 3.7010403947619026 7.952267685357999 9.565387076859523 3 -1 -2
499 50 9 -0.358962 13.259209957616875 6.983349734637831 11.723411294424032 -2 0 -2
1686 169 2 -0.091672 13.64630277728835 1.8249234697722 13.015920303152159 1 4 -1
204 21 4 0.404798 13.398396406524531 5.533449707450658 15.252322366295113 -1 -5 3
327 33 5 0.404798 0.8367038495231618 2.4381010654247857 10.023948842116 2 0 -2
1422 143 3 0.404798 7.544289055123493 6.84554870505838 15.194003675634086 4 -1 1
1437 144 5 0.404798 3.1326937026927966 2.3855949426416037 12.087734991681092 3 1 1
496 50 2 -0.091672 12.532494613573661 9.266110762736961 10.843914693293323 -2 0 -2
495 50 8 -0.358962 10.88313529793228 6.995290402161587 8.811628664176592 -2 0 -2
1436 144 2 -0.091672 4.183366161837219 2.6423494940682524 11.193781636210302 3 1 1
1681 169 1 -0.091672 14.506391599935768 1.2076384980944228 13.817723277866193 1 4 -1
205 21 8 -0.358962 14.116371439755868 4.608979037734665 15.40426397151821 -1 -5 3
242 25 3 0.404798 10.258782614859253 1.1958457265988105 7.958618195846335 -1 2 2
1146 115 2 -0.091672 7.164233269663523 7.727031518072414 12.055214704186183 -2 1 7
248 25 6 0.404798 12.272419656426115 3.2832653955467905 7.933603106091223 -1 2 2
1688 169 6 0.404798 12.589016192663347 2.5442702148139675 13.582185907939902 1 4 -1
249 25 9 -0.358962 11.567274602199136 4.796439370794584 11.042959946887551 -1 2 2
245 25 8 -0.358962 9.029543318613737 1.4587593901442983 11.05719571117174 -1 2 2
206 21 2 -0.091672 13.06539480002213 7.886746587443813 15.322591748782365 -1 -5 3
1690 169 10 -0.358962 11.771931880117915 3.1680706980259927 14.062907211682358 1 4 -1
1438 144 6 0.404798 4.371035997115197 3.9510575433298936 10.91379606396578 3 1 1
1440 144 10 -0.358962 4.5342068281160115 5.037175022561587 10.591066515764432 3 1 1
247 25 5 0.404798 11.55076003380165 4.037568830006686 10.146468977369594 -1 2 2
1682 169 3 0.404798 14.469348730162308 1.2949711014409675 15.218542141376203 1 4 -1
1687 169 5 0.404798 13.6733965564691 1.6056011994944404 11.59841280523 1 4 -1
241 25 1 -0.091672 10.457067594608143 2.1773883383507466 9.014440371498832 -1 2 2
1144 115 4 0.404798 9.337866323297751 8.730429547791505 12.584746581650414 -2 1 7
244 25 4 0.404798 9.682712349927302 1.833357545377214 10.14680590462775 -1 2 2
246 25 2 -0.091672 11.402148544699415 3.137905209387917 9.031357057041578 -1 2 2
1160 116 10 -0.358962 3.7485362405548703 8.187210206129395 14.636919700737636 0 3 3
1149 115 9 -0.358962 8.483987800348324 5.503294622788276 11.610369047667858 -2 1 7
1142 115 3 0.404798 7.1876706455259 9.873166712194703 13.134152804655201 -2 1 7
1141 115 1 -0.091672 7.891099805541723 8.799100953951534 12.510708925442774 -2 1 7
193 20 7 -0.358962 8.456948167175009 9.749965298041529 9.64665215252517 0 -4 -1
1689 169 9 -0.358962 13.625921904977673 1.336970771352968 10.423246500562207 1 4 -1
207 21 5 0.404798 14.410770746402857 8.137730273713416 15.673099690838178 -1 -5 3
330 33 10 -0.358962 3.5680876979369422 1.1854294373918808 8.250378909232088 2 0 -2
203 21 7 -0.358962 10.062156333405854 6.088705348433432 15.288481799569663 -1 -5 3
1148 115 6 0.404798 5.743751161674539 7.68052291266653 12.125830069338456 -2 1 7
1711 172 1 -0.091672 0.5321804876398606 6.801139767478159 15.164527846199714 0 3 -1
1145 115 8 -0.358962 10.511768291716804 8.628934305679717 12.607055935814566 -2 1 7
329 33 9 -0.358962 0.5456725438393697 2.848758400459226 11.060905895260701 2 0 -2
1147 115 5 0.404798 7.840317023365219 6.4662771560584895 11.77394761691454 -2 1 7
497 50 5 0.404798 13.017081934946399 8.057734564062736 11.402124768815227 -2 0 -2
201 21 1 -0.091672 12.553408040864543 6.673321025758073 15.134682270636638 -1 -5 3
1156 116 2 -0.091672 2.384175782883127 10.173652447449081 13.768739673021159 0 3 3
1432 144 3 0.404798 5.971018220079809 2.1051663186501353 9.645701212943258 3 1 1
1712 172 3 0.404798 1.7148816093966324 6.027505101323408 15.248830071699517 0 3 -1
492 50 3 0.404798 11.290717606002739 10.425796864817913 9.066748353277735 -2 0 -2
1424 143 4 0.404798 6.745696186363078 4.569380261047538 14.744615378642258 4 -1 1
1000 100 10 -0.358962 14.43437369018465 8.256713173025608 8.791167520861487 1 -5 2
1439 144 9 -0.358962 2.3559827340750115 2.1554320071448423 12.921570780540316 3 1 1
1335 134 8 -0.358962 13.90318158508976 5.375538245917323 9.651845807502951 -2 1 0
1684 169 4 0.404798 15.550792476259092 0.46359718438142117 13.222996387016691 1 4 -1
494 50 4 0.404798 11.312581017851244 8.01633135933957 9.17296468920803 -2 0 -2
208 21 6 0.404798 12.212930197734764 8.975489506663012 15.395112798772043 -1 -5 3
378 38 6 0.404798 3.0208957284515128 7.692914948862008 8.661777167755314 3 -1 -2
491 50 1 -0.091672 11.73057636294461 9.250389459935489 9.70467940073301 -2 0 -2
1713 172 7 -0.358962 2.6169905379191096 5.348079723744965 15.267142485968911 0 3 -1
1159 116 9 -0.358962 1.5177088732288808 9.98920547136193 11.388831998703694 0 3 3
930 93 10 -0.358962 15.596983099757033 9.362046416681942 11.964042260245149 -4 2 -1
1423 143 7 -0.358962 8.049485942029406 7.841379282549695 14.850083829958697 4 -1 1
192 20 3 0.404798 8.005610023264232 9.054040772625568 8.835738784767948 0 -4 -1
210 21 10 -0.358962 11.475816416025168 9.850698351844876 15.525978047082578 -1 -5 3
379 38 9 -0.358962 1.1589764657718198 4.912135373676157 7.908858701186548 3 -1 -2
530 53 10 -0.358962 0.06857228561448504 9.891351170253806 8.621064947243623 2 -1 2
998 100 6 0.404798 13.741209085132592 8.690950382008252 7.956720497256661 1 -5 2
1421 143 1 -0.091672 6.8890459398882475 5.666256277972748 15.633676183140413 4 -1 1
1649 165 9 -0.358962 7.9889809938925325 4.774784845856208 22.35781003520075 3 1 -2
1430 143 10 -0.358962 6.616743872913681 7.585750195110547 18.625671467322263 4 -1 1
1087 109 5 0.404798 14.114647704855283 9.939916625490985 22.405740784987525 -2 -2 2
1132 114 3 0.404798 9.979882484946847 2.1686038779466466 22.470708651184836 -4 0 -1
1230 123 10 -0.358962 9.875641761157496 3.283032298706936 16.01774920944827 2 4 0
1647 165 5 0.404798 8.594460986252297 5.74352818032609 22.21216353612264 3 1 -2
1089 109 9 -0.358962 14.025692763001997 9.437296305801107 21.327968302544498 -2 -2 2
744 75 4 0.404798 4.038092918553646 1.2227343047317083 22.477222438407207 -3 0 -2
745 75 8 -0.358962 3.608383331727579 0.7740385896093414 21.476080193658436 -3 0 -2
154 16 4 0.404798 5.025052987945472 9.682275313257923 20.042693900842682 3 4 0
1472 148 3 0.404798 12.952062159698537 7.873969002287168 18.58771308505873 2 2 0
519 52 9 -0.358962 1.197364628440789 8.888656964002978 21.44763918191335 -3 -2 -2
1642 165 3 0.404798 9.27028933085429 9.36144123822525 22.112087111796324 3 1 -2
1480 148 10 -0.358962 9.763645421362913 6.341255303910761 18.044064127184143 2 2 0
1321 133 1 -0.091672 0.7447999094980201 1.1406876945604234 18.477433149741987 0 -1 0
749 75 9 -0.358962 4.032704691477153 4.844866214855856 22.55535921200409 -3 0 -2
1479 148 9 -0.358962 12.648576221961468 3.298087321715133 17.283587173389126 2 2 0
943 95 7 -0.358962 15.009407738337332 7.1666628887089265 23.451950863599034 4 5 0
1476 148 2 -0.091672 12.227137399812266 5.684998368972002 18.0093880269786 2 2 0
942 95 3 0.404798 14.551023195365564 6.138415083814551 23.329125464066884 4 5 0
945 95 8 -0.358962 13.572629158817811 3.6817003159007475 20.88459468999077 4 5 0
1426 143 2 -0.091672 6.4056116387286055 5.586510263503467 16.858050441837534 4 -1 1
1478 148 6 0.404798 10.875716857933783 6.013618781697385 18.06702802470854 2 2 0
159 16 9 -0.358962 8.01639802183431 10.20751463606622 17.778808322083204 3 4 0
1221 123 1 -0.091672 8.96365910384953 0.10286516731695503 16.996774665006804 2 4 0
1477 148 5 0.404798 12.520330925447324 4.381708343509987 17.68115214003555 2 2 0
1428 143 6 0.404798 6.522583355413375 6.7236652697176575 17.846074440935695 4 -1 1
209 21 9 -0.358962 15.489085454343865 8.425369884093891 15.943860994414996 -1 -5 3
1650 165 10 -0.358962 11.750027188714217 6.918259730113475 21.48069284482881 3 1 -2
518 52 6 0.404798 3.5598945214379634 6.490902918102735 20.32671240601788 -3 -2 -2
155 16 8 -0.358962 4.243342255082766 9.012910110701077 19.544542739786266 3 4 0
1710 171 10 -0.358962 12.519594408070386 0.040803558075421645 18.725911993141793 -1 3 2
1648 165 6 0.404798 10.630279318362131 6.8984098023669285 21.712014024454902 3 1 -2
944 95 4 0.404798 13.80092129118227 4.20652732407578 21.88721649615186 4 5 0
1223 123 7 -0.358962 7.54647204741178 1.4532043072292313 18.725649168277894 2 4 0
1427 143 5 0.404798 5.713532984086834 4.412903906662372 17.30651595168114 4 -1 1
520 52 10 -0.358962 4.655595145710396 6.434910728287774 19.99232198500374 -3 -2 -2
941 95 1 -0.091672 14.02122758701851 4.843951842613841 23.16760172777465 4 5 0
1643 165 7 -0.358962 9.82963080544645 10.36552843051383 22.005948451683324 3 1 -2
513 52 7 -0.358962 2.380646832845742 3.2995430891687114 19.613243172768836 -3 -2 -2
1429 143 9 -0.358962 5.2007052282302855 3.418288881781208 17.583482926098892 4 -1 1
1473 148 7 -0.358962 12.782611500719478 8.9930265510346 18.750224645156887 2 2 0
1133 114 7 -0.358962 10.391466016460075 2.369707185284259 21.40325642163536 -4 0 -1
1720 172 10 -0.358962 1.7025152107566153 8.778408763821652 17.895299970549242 0 3 -1
1645 165 8 -0.358962 6.175231969820718 8.37686527050253 22.85558659270177 3 1 -2
1716 172 2 -0.091672 0.2031947803619309 7.864313249718214 15.97899800050748 0 3 -1
1718 172 6 0.404798 1.0784865617652364 8.294938553000081 17.046487236797457 0 3 -1
1474 148 4 0.404798 14.629642462834687 6.06986100674761 18.274167661882927 2 2 0
1323 133 7 -0.358962 2.5163924063182765 2.236938828252675 16.98850628263517 0 -1 0
747 75 5 0.404798 4.462308513033117 4.0080109247810185 23.266213473036057 -3 0 -2
1226 123 2 -0.091672 9.611924726140026 0.7328152322903382 16.054356295175143 2 4 0
1641 165 1 -0.091672 8.663539685509154 8.138067578055123 22.284129685813852 3 1 -2
1228 123 6 0.404798 9.667563444946492 2.168217574147344 15.922181950209762 2 4 0
1222 123 3 0.404798 8.15790447082645 0.8386555839378997 17.942418799493645 2 4 0
1471 148 1 -0.091672 13.239597742904788 6.530840404886171 18.260681386372813 2 2 0
1644 165 4 0.404798 7.265853721674934 8.25360406136424 22.642546940316205 3 1 -2
512 52 3 0.404798 1.9662959556858646 4.31492844093135 20.038805937813425 -3 -2 -2
517 52 5 0.404798 1.5871515279968877 7.825911409142627 21.05003063982837 -3 -2 -2
511 52 1 -0.091672 1.376289373087836 5.428025824113927 20.659061493330448 -3 -2 -2
516 52 2 -0.091672 2.1377063667933154 6.545026302212245 20.665025003662027 -3 -2 -2
223 23 7 -0.358962 15.21009590042908 0.7167898137928823 18.912493729375086 -3 0 -2
1322 133 3 0.404798 1.72783529124602 1.681507813498134 17.63538076602918 0 -1 0
1683 169 7 -0.358962 14.328556248601812 1.3767751752749282 16.369337978538628 1 4 -1
1646 165 2 -0.091672 9.275653582925132 6.947832557788523 22.050596660004935 3 1 -2
1121 113 1 -0.091672 2.463040266835161 3.549416104992068 28.94582586872138 0 3 2
1081 109 1 -0.091672 13.493649630202317 10.245981316229837 24.741326625013404 -2 -2 2
949 95 9 -0.358962 12.665745127314047 1.7312578935429823 23.80861724458062 4 5 0
854 86 4 0.404798 10.645784225112493 4.22693738908483 28.43398881239904 -2 0 -1
1127 113 5 0.404798 2.0298736712574708 4.284897755914691 26.61442869624946 0 3 2
855 86 8 -0.358962 11.521819640770389 4.1323883359146345 27.673824450097868 -2 0 -1
1085 109 8 -0.358962 11.37017880696831 8.686392559443357 24.50254481304843 -2 -2 2
103 11 7 -0.358962 4.7504856782625975 7.100779964001078 26.80240381250392 -3 -2 3
1516 152 2 -0.091672 0.4735959631140078 8.382224496790105 26.675439925809513 1 1 2
93 10 7 -0.358962 6.166574245857694 1.5406831575689408 29.508677595904125 0 1 -1
950 95 10 -0.358962 14.079143928814476 4.896514547355966 26.574797724855802 4 5 0
742 75 3 0.404798 4.7663588831011365 0.5616988948195157 24.65589776702518 -3 0 -2
102 11 3 0.404798 5.378954166030974 7.484427113934529 27.701933496376878 -3 -2 3
1131 114 1 -0.091672 9.427905331635245 1.8178392940855022 23.684654119740802 -4 0 -1
1670 167 10 -0.358962 4.987327483267628 10.345567819615848 27.399487094933107 1 5 -2
231 24 1 -0.091672 13.571917046255018 6.120692249362261 29.63458698635734 2 2 1
1174 118 4 0.404798 0.46653799634849974 0.49148202868803464 25.050789027969323 2 1 -1
418 42 6 0.404798 13.953974930207487 0.9210516329243031 29.825579077402523 -1 -1 2
851 86 1 -0.091672 9.550233274220377 4.3181098994990945 29.334018564807998 -2 0 -1
1122 113 3 0.404798 3.040555076518115 2.6605140609836 29.899554817885438 0 3 2
859 86 9 -0.358962 7.905280093144799 5.5037309054013255 26.44820339956291 -2 0 -1
1084 109 4 0.404798 12.316560667769123 9.371859670515716 24.65835876038686 -2 -2 2
860 86 10 -0.358962 6.325682705548693 4.545492073029362 30.450165100711093 -2 0 -1
104 11 4 0.404798 5.7903099862638605 7.821585645443702 30.08644514072778 -3 -2 3
947 95 5 0.404798 13.200415999626381 2.7645621628125046 24.002632048200578 4 5 0
232 24 3 0.404798 13.712660609135677 4.813941633735136 30.246363493566477 2 2 1
110 11 10 -0.358962 8.330274151697992 8.732873585176371 25.956738705720422 -3 -2 3
1139 114 9 -0.358962 8.637964027230307 2.205221770906155 27.116343967095144 -4 0 -1
106 11 2 -0.091672 7.332368989106025 8.611107815096176 28.32428348740493 -3 -2 3
948 95 6 0.404798 13.95700162202655 4.570317417202683 25.486848648287005 4 5 0
1130 113 10 -0.358962 2.7887267376186404 0.9327552208467113 26.580548788422263 0 3 2
1128 113 6 0.404798 2.710063069893367 2.0141963901025153 27.08498353695293 0 3 2
1137 114 5 0.404798 9.101182146178335 2.2812571609357843 26.06371377488258 -4 0 -1
101 11 1 -0.091672 6.288939702631519 7.877916530300766 28.725598411839716 -3 -2 3
107 11 5 0.404798 8.055298152929362 9.332742678305772 29.308999899741824 -3 -2 3
105 11 8 -0.358962 5.4693772418035325 7.639145122139168 31.235040516109287 -3 -2 3
1134 114 4 0.404798 8.934445385460542 0.48173955501821536 23.845348156887827 -4 0 -1
746 75 2 -0.091672 4.786871137500977 2.9337339258316617 24.034635089054216 -3 0 -2
1514 152 4 0.404798 2.5052637738203147 9.139298165883304 27.788875964469895 1 1 2
946 95 2 -0.091672 13.766473242681059 4.099024676882957 24.219545153110218 4 5 0
109 11 9 -0.358962 8.630342810847115 9.657505961076401 30.231055577242397 -3 -2 3
858 86 6 0.404798 7.20133171512772 4.646853902882167 29.721463003141935 -2 0 -1
420 42 10 -0.358962 14.983722379776882 1.2263492058492422 30.297487659751187 -1 -1 2
234 24 4 0.404798 12.2641724916511 6.585448834544772 29.349298325140353 2 2 1
233 24 7 -0.358962 13.892077116211752 3.83907838527534 30.80017704238267 2 2 1
1515 152 8 -0.358962 3.0493206797573884 9.407803615701031 28.80886571846853 1 1 2
92 10 3 0.404798 6.678149139913825 1.3498290429217408 30.575386806032515 0 1 -1
108 11 6 0.404798 7.843542376330866 8.619884560054881 26.990497605110658 -3 -2 3
750 75 10 -0.358962 5.917990328845383 3.4162325803168287 26.347011341089868 -3 0 -2
1512 152 3 0.404798 2.40522529903951 8.879434654605761 25.39071808517943 1 1 2
1140 114 10 -0.358962 10.745162577940732 4.854665661643693 24.449024063587128 -4 0 -1
748 75 6 0.404798 5.373817210366476 3.209414725746034 25.321696410058316 -3 0 -2
1124 113 4 0.404798 2.1830067963369704 4.875843567625734 29.4112936106996 0 3 2
237 24 5 0.404798 14.526193224226867 8.25953662109171 28.9446886239752 2 2 1
236 24 2 -0.091672 14.599874121263925 6.920515646305535 29.371818732087686 2 2 1
1123 113 7 -0.358962 3.563546574485744 1.859779827970362 30.577681991638563 0 3 2
852 86 3 0.404798 9.82908509332275 4.082434504641615 30.720725992922773 -2 0 -1
416 42 2 -0.091672 12.751937683624066 0.56228021885609 29.073991393147214 -1 -1 2
857 86 5 0.404798 8.126552646590426 5.020846162203464 27.5092915933062 -2 0 -1
1513 152 7 -0.358962 2.878094942082289 9.04111592102639 24.38790990129156 1 1 2
239 24 9 -0.358962 14.44602366896321 9.33416866982398 28.492156218456206 2 2 1
1511 152 1 -0.091672 1.793068281799393 8.73070515718455 26.63282595852387 1 1 2
1126 113 2 -0.091672 2.3861704246415782 3.279133003347485 27.620971436458888 0 3 2
1129 113 9 -0.358962 1.6900007383169746 5.102986813671954 25.830915749847616 0 3 2
856 86 2 -0.091672 8.360456478801254 4.6690510181061775 28.872240313892213 -2 0 -1
1136 114 2 -0.091672 9.531146782697004 2.654251129515327 24.760491789709434 -4 0 -1
1138 114 6 0.404798 10.14327267962111 3.884146059141604 24.620149438294884 -4 0 -1
741 75 1 -0.091672 4.447850276550243 1.6773508373423314 23.787726467733368 -3 0 -2
1125 113 8 -0.358962 1.944222046885247 5.957433593255958 29.744203768928767 0 3 2
235 24 8 -0.358962 11.210996234720346 6.940225412983922 29.108722746569693 2 2 1
1171 118 1 -0.091672 0.031103575565246865 1.8313701804804325 24.757952058305612 2 1 -1
417 42 5 0.404798 11.498229969757272 0.9021590173124626 29.616109603327377 -1 -1 2
419 42 9 -0.358962 10.515011140419622 1.1766075745494722 30.06952316402315 -1 -1 2
1633 164 7 -0.358962 9.24371412829468 7.341868692706504 31.21159991778847 2 0 0
545 55 8 -0.358962 3.766552040343684 16.699356932864806 1.2524030920609794 -2 1 -1
177 18 5 0.404798 5.260734928741464 13.974386142959817 1.842240283014759 5 1 -1
679 68 9 -0.358962 15.19225472360725 18.39330004869251 3.8064739493709574 0 -2 2
1784 179 4 0.404798 4.997028708375447 20.6083373254432 4.429385179468879 7 1 2
176 18 2 -0.091672 4.903328765162289 12.88791836400797 2.685556989780983 5 1 -1
172 18 3 0.404798 4.218087127866244 10.662434412351004 3.0626171405913754 5 1 -1
1482 149 3 0.404798 11.84607607794886 18.760385321821264 5.32650141844375 0 0 0
1787 179 5 0.404798 4.550710602868043 17.716022626464966 4.645304108714744 7 1 2
676 68 2 -0.091672 15.06390835528771 15.770453037574693 4.047142895122012 0 -2 2
1483 149 7 -0.358962 11.899539767835655 19.182443324596825 6.387304838376994 0 0 0
1481 149 1 -0.091672 11.594500375469819 18.133813134495526 4.046921305165685 0 0 0
546 55 2 -0.091672 1.8454638931469087 19.59765527204068 1.7563815599689983 -2 1 -1
200 20 10 -0.358962 5.298319339102898 11.09196035921049 7.597615857689345 0 -4 -1
174 18 4 0.404798 4.683313717262588 11.305177668485436 0.7884903213347554 5 1 -1
373 38 7 -0.358962 2.647254753994869 10.4764681420424 6.3744157920533215 3 -1 -2
1489 149 9 -0.358962 10.448847161774589 15.896820163034272 1.7038282431215301 0 0 0
541 55 1 -0.091672 1.8205381118858692 18.29744186355353 1.673799797223445 -2 1 -1
1312 132 3 0.404798 15.329402709208644 12.581974891884439 0.5286134414789633 1 0 0
1581 159 1 -0.091672 7.560411852266639 13.42369123856587 6.178834663158671 1 0 1
1788 179 6 0.404798 2.166137910093671 18.27675164021441 5.042673784083924 7 1 2
1786 179 2 -0.091672 3.524939886557232 18.746685082491695 4.770780207783565 7 1 2
634 64 4 0.404798 0.15844493144539862 12.258442746745887 6.055623674782946 3 -1 0
1770 177 10 -0.358962 3.1398846108864213 15.521635329455906 6.983802182177929 3 4 3
1485 149 8 -0.358962 11.279543240502193 19.621015387098705 1.955010161690387 0 0 0
432 44 3 0.404798 8.71026054977417 11.615895828564204 0.18903512092788946 -2 2 -2
438 44 6 0.404798 11.127482606191846 11.683651083753888 1.7042319857117243 -2 2 -2
171 18 1 -0.091672 4.679988053711042 11.67132167956524 2.182699357287111 5 1 -1
633 64 7 -0.358962 1.5606306455661605 14.410760602062332 3.738571887309756 3 -1 0
1587 159 5 0.404798 8.10185924487508 14.42503130856949 4.073657852486257 1 0 1
544 55 4 0.404798 2.9391495244877457 17.469695458269193 1.4019523126096107 -2 1 -1
1785 179 8 -0.358962 6.1169312678933485 20.84786593083176 4.3301419884019845 7 1 2
405 41 8 -0.358962 6.435046969343335 18.406000963534627 1.8461718250506645 0 1 -2
994 100 4 0.404798 11.756649682949911 11.043381734060254 5.9025045576593005 1 -5 2
1589 159 9 -0.358962 8.375740624812474 14.315141646639912 2.9727682002709783 1 0 1
1790 179 10 -0.358962 1.1025161007054163 17.9272074477432 5.357567439518408 7 1 2
632 64 3 0.404798 0.7518176865610605 13.665680881820336 4.153247535066541 3 -1 0
34 4 4 0.404798 0.7706749903100273 14.108413000869373 0.112548357941381 -1 -1 6
1075 108 8 -0.358962 9.48388609518129 20.215707811988523 4.34556069411901 3 -1 -1
1487 149 5 0.404798 10.91023240335815 16.294992524454315 2.712885034331343 0 0 0
1789 179 9 -0.358962 5.496663340979688 17.01303487297444 4.424280057953096 7 1 2
677 68 5 0.404798 15.111157089876597 17.213800932649228 3.9442361275915863 0 -2 2
1584 159 4 0.404798 7.820773419429899 12.091209419634726 5.676641336295822 1 0 1
1781 179 1 -0.091672 3.738517260666064 20.10016533985163 4.811362508715016 7 1 2
436 44 2 -0.091672 10.047744723395278 10.854432718432784 1.9901040313400524 -2 2 -2
35 4 8 -0.358962 0.9217637228184032 13.527690186109021 1.0749175093003067 -1 -1 6
1585 159 8 -0.358962 7.914631652050797 10.9872706702311 5.339510103491075 1 0 1
1588 159 6 0.404798 7.678862944423712 15.792580567390738 5.920141135931574 1 0 1
1582 159 3 0.404798 7.3949468664831235 13.574482477513573 7.552059097932696 1 0 1
180 18 10 -0.358962 4.850769029254795 12.919885577580786 5.2385673870727905 5 1 -1
635 64 8 -0.358962 0.33268112325505933 11.906018142361289 7.169650735308753 3 -1 0
1586 159 2 -0.091672 7.710155609612124 14.50758689807744 5.408753335275139 1 0 1
991 100 1 -0.091672 12.702596024061462 10.600709203904263 6.865328945264577 1 -5 2
992 100 3 0.404798 13.515657130325254 11.454064212659707 7.623064129104822 1 -5 2
178 18 6 0.404798 4.863473971636651 12.938455787753425 4.094876436201192 5 1 -1
1768 177 6 0.404798 3.1268136719201935 16.331804655432133 7.814611450251898 3 4 3
1484 149 4 0.404798 11.41237156086626 18.90315729035828 2.8413955178266868 0 0 0
912 92 3 0.404798 15.597412976540927 20.50197669888931 0.6308014609092458 -3 -1 1
1488 149 6 0.404798 11.090128285655437 16.086757457957958 5.151930388691931 0 0 0
547 55 5 0.404798 3.0930703962600976 20.269794285071395 1.6407957504772361 -2 1 -1
440 44 10 -0.358962 12.030100525499334 12.322709604972365 1.392517513538901 -2 2 -2
179 18 9 -0.358962 5.619821239358767 14.943763314649036 1.3265814613201303 5 1 -1
542 55 3 0.404798 0.5102995559428423 17.579500169683076 1.7971814030583897 -2 1 -1
1486 149 2 -0.091672 11.265161348590288 16.871894064244277 3.9576025533828374 0 0 0