LAMMPS data file via write_data, version 29 Sep 2021, timestep = 5000000

1620 atoms
10 atom types
1458 bonds
9 bond types
1620 angles
10 angle types
1944 dihedrals
12 dihedral types

0 31.303 xlo xhi
0 31.303 ylo yhi
0 31.303 zlo zhi

Masses

1 12.01
2 12.01
3 12.01
4 12.01
5 12.01
6 12.01
7 14.01
8 14.01
9 14.01
10 14.01

Bond Coeffs # harmonic

1 400 1.426
2 400 1.426
3 400 1.426
4 400 1.426
5 549 1.34
6 650 1.16
7 650 1.16
8 650 1.16
9 650 1.16

Angle Coeffs # harmonic

1 70 116.8
2 70 116.8
3 70 121.6
4 70 121.6
5 70 121.6
6 70 121.6
7 70 178.9
8 70 178.9
9 70 178.9
10 70 178.9

Dihedral Coeffs # opls

1 0 0 0 0
2 0 0 0 0
3 0 0 0 0
4 0 0 0 0
5 0 0 0 0
6 0 0 0 0
7 0 0 0 0
8 0 0 0 0
9 0 14 0 0
10 0 14 0 0
11 0 14 0 0
12 0 14 0 0

Atoms # full

962 97 3 0.404798 14.20375996808931 0.8574058886489202 7.564747780880335 3 3 1
35 4 8 -0.358962 11.204399887383948 1.9519113657188938 7.2566410303205355 1 -2 2
14 2 4 0.404798 7.980614749458702 10.231302718522963 3.8542456692773057 3 1 1
17 2 5 0.404798 7.241045916326254 8.196110366084072 1.9553394049629562 3 1 1
16 2 2 -0.091672 7.701984961763716 9.501842319360545 1.494840207183918 3 1 1
19 2 9 -0.358962 6.868273447054055 7.151569795892241 2.295303646652145 3 1 1
18 2 6 0.404798 7.795010974262356 9.812653005492196 0.16624792252864384 3 1 1
272 28 3 0.404798 0.8926229522154676 5.807051765252378 4.108061648813523 2 0 0
982 99 3 0.404798 1.7027857470526073 3.9517392776467295 1.4817673198045738 1 -1 -2
983 99 7 -0.358962 0.8627867979372823 3.645998300818359 2.221040089810915 1 -1 -2
985 99 8 -0.358962 5.108413646830157 4.401273529452696 1.826944239591955 1 -1 -2
678 68 6 0.404798 4.051098314473252 1.6900031250111043 7.8160456526188735 -3 0 0
408 41 6 0.404798 8.330986410427847 7.448602426105356 6.250337691964827 1 1 -1
279 28 9 -0.358962 4.231012763842745 9.141129461054746 4.445676320579245 2 0 0
409 41 9 -0.358962 5.0981981993021845 6.2863130256869955 6.571870882199466 1 1 -1
213 22 7 -0.358962 7.338455288874259 4.555483242972374 6.090028677838471 -2 3 2
194 20 4 0.404798 10.796521790850342 10.019639734174625 0.2088695280058058 -2 2 3
679 68 9 -0.358962 3.4096479818917618 3.3385172542736954 4.844100084830122 -3 0 0
277 28 5 0.404798 3.452371863936936 8.325332641625202 4.717326705742253 2 0 0
406 41 2 -0.091672 7.293288155018451 7.5723959058792 7.111736361464054 1 1 -1
212 22 3 0.404798 7.442906927246402 3.65049821265233 5.371911730241642 -2 3 2
275 28 8 -0.358962 2.2238270871104326 7.294472980907642 1.488541172346464 2 0 0
676 68 2 -0.091672 3.60377670991022 1.3440927107997334 6.4898801354120605 -3 0 0
407 41 5 0.404798 6.08957877343706 6.831827272429303 6.8271722093021525 1 1 -1
677 68 5 0.404798 3.461356253955854 2.4431947413566406 5.579847229948403 -3 0 0
219 22 9 -0.358962 8.200809774905158 0.5189619096921796 1.861068138267672 -2 3 2
271 28 1 -0.091672 1.906294243278777 6.793018673838 3.983887653607887 2 0 0
276 28 2 -0.091672 2.44131099847724 7.437746910149702 5.029680459980129 2 0 0
1252 126 3 0.404798 14.517335135654982 5.708324499436917 1.0994905045981174 1 0 0
965 97 8 -0.358962 11.868599482488175 1.2455759747824247 4.957417425033095 3 3 1
211 22 1 -0.091672 7.507942090844096 2.553265499327613 4.502515502132625 -2 3 2
220 22 10 -0.358962 9.178820256168562 4.825359336108361 2.4067946753898943 -2 3 2
218 22 6 0.404798 8.775278693989241 3.8196071990441625 2.8205782608092638 -2 3 2
410 41 10 -0.358962 9.25007041993679 7.464752341854925 5.54278996679892 1 1 -1
1248 125 6 0.404798 14.636801475383733 1.4380487464266776 1.8080074322201565 2 0 -4
964 97 4 0.404798 12.690229591064021 0.7839206460894074 5.6337297348606885 3 3 1
274 28 4 0.404798 2.1269497370330632 7.126558407422635 2.632227968413985 2 0 0
214 22 4 0.404798 6.858136911376707 1.3960339463038174 4.915675334470111 -2 3 2
1260 126 10 -0.358962 12.025662985105695 3.5039825196720686 2.3963370841117495 1 0 0
1258 126 6 0.404798 12.54414281631889 4.506447995743528 2.664369987038972 1 0 0
671 68 1 -0.091672 3.4872355035972475 0.03141124827718972 6.247216634399465 -3 0 0
1255 126 8 -0.358962 15.43311111073597 8.408676407932749 2.9546719459090625 1 0 0
1575 158 8 -0.358962 0.09473236053609517 1.7773384870046476 7.2132953304645335 -3 -4 -2
1250 125 10 -0.358962 13.850750885843246 0.8230991912484503 2.399244739910313 2 0 -4
280 28 10 -0.358962 2.2724698499953955 6.971288470796627 7.53261164433686 2 0 0
1152 116 3 0.404798 3.990496918584224 10.269115904114567 0.585179220934479 1 1 1
1327 133 5 0.404798 11.773403546893377 9.851824548112829 7.593507013427929 2 3 0
198 20 6 0.404798 10.57855881504485 6.365568584109174 0.4976800753189612 -2 2 3
984 99 4 0.404798 4.102589760365521 4.235165190909207 1.2734766315513657 1 -1 -2
1251 126 1 -0.091672 14.16184862753872 6.278837361773469 2.3502803193244017 1 0 0
1254 126 4 0.404798 14.83838655904846 7.439991267775293 2.723259304793098 1 0 0
490 49 10 -0.358962 10.249211699968324 4.047828284676096 5.023513300099407 -2 1 2
217 22 5 0.404798 8.219156379585613 1.4598640985535511 2.5392764538543293 -2 3 2
216 22 2 -0.091672 8.154894230357131 2.6268359587664056 3.3313449877109464 -2 3 2
1329 133 9 -0.358962 12.03519186037826 8.72809270699893 7.713063219939832 2 3 0
1257 126 5 0.404798 12.699890324304652 6.242979313256776 4.3455039458815135 1 0 0
196 20 2 -0.091672 10.661315195368134 7.741068033552386 0.7646224104674472 -2 2 3
1259 126 9 -0.358962 12.182600106968021 6.5941116978375405 5.322600093557739 1 0 0
197 20 5 0.404798 10.783958906334638 8.119666395473134 2.0649486589141954 -2 2 3
1256 126 2 -0.091672 13.210618896746862 5.716549507238808 3.108300377696997 1 0 0
199 20 9 -0.358962 10.993487537305528 8.377347106757403 3.17638845344071 -2 2 3
278 28 6 0.404798 2.327027031621291 7.086767288077339 6.37966402107044 2 0 0
1246 125 2 -0.091672 15.54357025244611 2.1742131135943277 0.9340127684060312 2 0 -4
981 99 1 -0.091672 2.865327794129366 4.17828948928226 0.6562091816087566 1 -1 -2
1413 142 7 -0.358962 2.2154999813638967 3.9364573306585733 7.638028242731818 1 3 1
488 49 6 0.404798 10.402753101829925 4.470478628432084 6.092808302128243 -2 1 2
34 4 4 0.404798 10.558816251135985 1.0490186248233118 7.593696666544628 1 -2 2
1153 116 7 -0.358962 3.6201298406767326 10.237865954626036 1.684020323635159 1 1 1
483 49 7 -0.358962 14.101402572952237 4.435130494802463 7.083481589853488 -2 1 2
200 20 10 -0.358962 10.61212855069547 5.223739683858995 0.2959378323850784 -2 2 3
523 53 7 -0.358962 7.098619482961452 3.2950629344217064 0.16671152265151573 1 1 2
486 49 2 -0.091672 10.60635505251342 5.033958163464082 7.3656531156233624 -2 1 2
482 49 3 0.404798 13.032675238431008 4.643804944178241 7.483327635777963 -2 1 2
215 22 8 -0.358962 6.343672400365504 0.4225212313502498 5.2806400987286235 -2 3 2
15 2 8 -0.358962 7.92331875404599 10.142822535685067 5.009446320355114 3 1 1
845 85 8 -0.358962 5.086772583460365 0.7477220349140159 2.0596235488066488 -1 2 0
1253 126 7 -0.358962 14.802928284292124 5.167990539660413 0.1135514692701323 1 0 0
961 97 1 -0.091672 13.690661182929128 0.17448107333357216 6.453735256520401 3 3 1
39 4 9 -0.358962 7.462998379737737 2.3503650553318223 7.824221054752017 1 -2 2
11 2 1 -0.091672 8.017211105621232 10.414621097029249 2.423854456226036 3 1 1
56 6 2 -0.091672 4.561774874863205 8.744498074411004 13.715633676550032 -1 4 -3
54 6 4 0.404798 5.739866116722192 6.885376260672415 12.916104148913064 -1 4 -3
51 6 1 -0.091672 5.535356621783626 7.842346227140731 13.899646264809729 -1 4 -3
59 6 9 -0.358962 3.3474751965363647 8.789989810477747 11.450494797423199 -1 4 -3
782 79 3 0.404798 6.03252953628259 2.767997510557887 11.552113426473968 -2 1 1
108 11 6 0.404798 11.327658189096576 0.31058415141532886 10.96347511112696 2 0 2
57 6 5 0.404798 3.894436840127124 8.826394721706036 12.472799861574163 -1 4 -3
55 6 8 -0.358962 6.0045775315492715 6.094437539723648 12.109913189227344 -1 4 -3
1074 108 4 0.404798 2.8470732355884047 2.7382593979299648 11.494522578162618 1 -1 1
1073 108 7 -0.358962 3.499525506224933 6.006565612117718 10.1504351177619 1 -1 1
1072 108 3 0.404798 3.138027479283139 5.13703928027338 10.827814745655477 1 -1 1
1076 108 2 -0.091672 1.617400097123777 4.5615943171384465 12.537149713073457 1 -1 1
37 4 5 0.404798 7.917166526147284 1.288989312415558 7.9374150895204165 1 -2 2
1075 108 8 -0.358962 3.106008704008733 1.6075950766060603 11.506796319233215 1 -1 1
403 41 7 -0.358962 9.549465406204513 9.326056264584784 9.218528077755138 1 1 -1
103 11 7 -0.358962 12.543350771087372 0.026083484855187848 14.556443990723903 2 0 2
1071 108 1 -0.091672 2.4892302922162055 4.196885055033689 11.587150042501186 1 -1 1
1080 108 10 -0.358962 0.8282373601666974 7.04838123681633 12.68291014794156 1 -1 1
1078 108 6 0.404798 1.226136914093973 5.9588528350180185 12.66863079760023 1 -1 1
1077 108 5 0.404798 0.7995251772329713 3.57426652929949 13.251778232952278 1 -1 1
1079 108 9 -0.358962 0.22591976287151475 2.8225420326645403 13.92370614150616 1 -1 1
208 21 6 0.404798 15.584189646059095 7.606597433393612 10.869335898376018 -1 3 -3
235 24 8 -0.358962 15.54074783456979 1.3731684912908864 14.584736842234838 0 0 2
783 79 7 -0.358962 5.495365268092551 3.6220868506927903 10.979762154756976 -2 1 1
405 41 8 -0.358962 5.442760117982674 8.679891830315134 9.84980665108828 1 1 -1
545 55 8 -0.358962 3.029993260334666 3.0108077734233256 15.454569509459105 -1 -3 -1
1420 142 10 -0.358962 0.987473007735051 0.9344407070646326 9.774450550414276 1 3 1
1412 142 3 0.404798 1.2959391545644356 4.088072538018224 8.32869513641431 1 3 1
784 79 4 0.404798 6.8105585613954105 0.525808771924903 11.834619173059174 -2 1 1
404 41 4 0.404798 6.305275946148218 8.448360415912486 9.109496093641893 1 1 -1
105 11 8 -0.358962 11.122867736622217 4.015186073006051 13.980803476375431 2 0 2
402 41 3 0.404798 8.56230810165457 8.902307325120171 8.78085543062291 1 1 -1
107 11 5 0.404798 10.37879035814292 2.4727684397056433 10.9336139362312 2 0 2
769 77 9 -0.358962 14.971913829598288 3.3505451025331086 10.762652368269848 -3 1 4
790 79 10 -0.358962 7.3028517450242365 4.462286099980676 14.425849714611005 -2 1 1
139 14 9 -0.358962 1.600401645322321 0.6004565953627861 14.279993024603941 1 1 1
789 79 9 -0.358962 8.651330084688126 0.31156839889644344 14.815576376423474 -2 1 1
202 21 3 0.404798 13.952236755096772 9.74090131311987 10.197431070934734 -1 3 -3
58 6 6 0.404798 4.1934675788918225 9.680123352348255 14.747556681448504 -1 4 -3
104 11 4 0.404798 11.154228492589343 2.933628663632613 13.562652663992836 2 0 2
963 97 7 -0.358962 14.76397028471897 1.4010383294892284 8.422785198725661 3 3 1
401 41 1 -0.091672 7.389150131428108 8.276541978212421 8.24777721708179 1 1 -1
788 79 6 0.404798 7.319632449544447 3.396234776831804 13.968845340613234 -2 1 1
1227 123 5 0.404798 15.024422024377344 8.563424462592138 15.240528850292392 3 -1 0
786 79 2 -0.091672 7.289945232870506 2.084117818235539 13.516378918494043 -2 1 1
489 49 9 -0.358962 8.418577354562004 5.5203435604993185 8.624213119255202 -2 1 2
106 11 2 -0.091672 11.053016732065139 1.4848015006906539 11.666625941086789 2 0 2
485 49 8 -0.358962 12.063095786830123 5.558967475339904 10.509031993830167 -2 1 2
1226 123 2 -0.091672 14.979728039212594 9.878750576638488 14.61090046762195 3 -1 0
747 75 5 0.404798 8.48427284983826 9.325218189561761 12.182058234476571 3 2 1
787 79 5 0.404798 8.066516020572088 1.1146463899489374 14.216695520988885 -2 1 1
101 11 1 -0.091672 11.323571737925295 1.6205201573184267 12.971991965780669 2 0 2
484 49 4 0.404798 11.834032406173032 5.3724342112469445 9.387276494084862 -2 1 2
1411 142 1 -0.091672 0.18665962367298264 4.247525295239045 9.282011214711439 1 3 1
102 11 3 0.404798 11.99371837584368 0.6945181384889958 13.783980806189108 2 0 2
203 21 7 -0.358962 13.076291819839575 10.192147473780754 10.80955636924697 -1 3 -3
481 49 1 -0.091672 11.795514915031795 5.046155223497933 7.983188629156847 -2 1 2
749 75 9 -0.358962 8.905071072689005 8.24519351415421 12.136499404187068 3 2 1
201 21 1 -0.091672 15.159712885168569 9.420819652974165 9.438695879246048 -1 3 -3
781 79 1 -0.091672 6.671941964255729 1.758122423328831 12.372963409393424 -2 1 1
487 49 5 0.404798 9.44624387104436 5.3271476172789525 8.12204095059318 -2 1 2
109 11 9 -0.358962 9.847714134768887 3.322096588934092 10.34863551782755 2 0 2
765 77 8 -0.358962 14.895764014191645 4.923974437269021 14.63157418971651 -3 1 4
1224 123 4 0.404798 12.60795571241196 9.677390817384419 14.202504701420711 3 -1 0
1418 142 6 0.404798 0.49614871106516145 1.9627319849949065 9.990824235320154 1 3 1
1221 123 1 -0.091672 13.84755415193336 10.354004632579256 14.074322511063745 3 -1 0
680 68 10 -0.358962 4.304809161338099 1.9931344077005597 8.906615340743093 -3 0 0
52 6 3 0.404798 6.277803630615766 7.78137992194006 15.068379311378754 -1 4 -3
1225 123 8 -0.358962 11.556661913194974 9.191453740350308 14.267670173308664 3 -1 0
204 21 4 0.404798 15.357472429863813 10.152418299358002 8.269403121397918 -1 3 -3
210 21 10 -0.358962 15.078021084920916 7.122555350234053 11.794050263292883 -1 3 -3
60 6 10 -0.358962 3.7164874879514977 10.430021489098284 15.49303826848976 -1 4 -3
36 4 2 -0.091672 8.526309780773923 0.01534215321951038 8.124658443365167 1 -2 2
822 83 3 0.404798 0.600586468320233 9.66704105847641 19.256274275014405 -2 1 1
542 55 3 0.404798 2.933512748512635 4.91178590687952 18.286911190265638 -1 -3 -1
823 83 7 -0.358962 1.4106571273073174 9.664205968956164 20.08656188022765 -2 1 1
1122 113 3 0.404798 4.445810026932992 7.643298727409854 21.904476322510305 1 0 0
689 69 9 -0.358962 11.511331434544124 1.6446301910012129 16.934060856299908 0 -4 0
230 23 10 -0.358962 6.283129973487005 2.753352822413392 22.96803690120855 0 -4 -2
342 35 3 0.404798 14.210444025416875 10.21355475369902 19.94433853497586 -4 -1 2
550 55 10 -0.358962 3.084263122051372 2.9180443934776275 21.41224763883899 -1 -3 -1
546 55 2 -0.091672 3.443696032820785 2.574747418813865 18.877608364436522 -1 -3 -1
548 55 6 0.404798 3.3198167649448393 2.7613909648539687 20.287270221479037 -1 -3 -1
547 55 5 0.404798 3.3637433702618567 1.175713065124018 18.461657989960443 -1 -3 -1
838 84 6 0.404798 0.8449943748485695 7.273467346046863 22.57559364614207 0 -2 1
541 55 1 -0.091672 3.1069863171599654 3.5296665546879433 17.99990901229161 -1 -3 -1
1123 113 7 -0.358962 3.4103857385161276 8.00676776011237 21.528461947773724 1 0 0
543 55 7 -0.358962 2.862535940065672 6.0537453732172315 18.47793717116929 -1 -3 -1
688 69 6 0.404798 14.846145412063374 2.2878713555785875 17.384897406303903 0 -4 0
992 100 3 0.404798 5.518757192469961 10.099990522228573 19.01266434833758 2 -4 -3
1342 135 3 0.404798 8.950550626515753 2.950508830646061 17.478821166638216 1 -3 -5
343 35 7 -0.358962 13.549161905256375 9.476065460674523 19.34067006411234 -4 -1 2
1129 113 9 -0.358962 8.668046829365315 5.536775363886289 22.824944510437337 1 0 0
993 100 7 -0.358962 4.701162120324718 9.287341686515626 19.142048154942252 2 -4 -3
53 6 7 -0.358962 6.888449436824853 7.864526005228038 16.05112976682642 -1 4 -3
939 94 9 -0.358962 0.30856394079550425 3.846312325988469 17.00804667211467 8 -2 -1
690 69 10 -0.358962 15.41296806241345 3.2986593525479653 17.436081003366855 0 -4 0
1083 109 7 -0.358962 14.977924769290022 6.628718430485894 19.38823737344325 0 -1 1
840 84 10 -0.358962 0.6147407840255735 7.318064354352267 21.439550328178157 0 -2 1
1348 135 6 0.404798 6.817045018240531 1.2231970363302103 17.346315710939397 1 -3 -5
544 55 4 0.404798 3.0901041852333107 3.257358554813994 16.586470339632015 -1 -3 -1
1350 135 10 -0.358962 5.988329150344065 1.3408182348356605 16.54319972813197 1 -3 -5
1085 109 8 -0.358962 12.26147619044579 4.1596091246026825 16.78379699200838 0 -1 1
1229 123 9 -0.358962 14.969418936282828 7.6405767071477575 15.9411904542277 3 -1 0
998 100 6 0.404798 8.170754217719868 9.961175367611185 20.078169413924645 2 -4 -3
1086 109 2 -0.091672 11.465032900274023 5.71464814126227 19.722296994160295 0 -1 1
687 69 5 0.404798 12.60686731933483 1.277384712512909 17.036686035628318 0 -4 0
1088 109 6 0.404798 11.516304278650486 6.557298808608844 20.8810112193281 0 -1 1
686 69 2 -0.091672 14.010361197258149 1.0546573886623722 17.309024238487964 0 -4 0
1121 113 1 -0.091672 5.608494613275479 7.196877731852843 22.46243912896459 1 0 0
1126 113 2 -0.091672 6.552701126710388 6.584589518811843 21.73499343545412 1 0 0
1332 134 3 0.404798 12.61545729530292 3.3771603188213932 23.44974222242812 1 -1 1
1130 113 10 -0.358962 6.092610630903997 5.948913617231274 19.26567253509721 1 0 0
1128 113 6 0.404798 6.346570015674256 6.270574206247407 20.350863371622037 1 0 0
1311 132 1 -0.091672 0.7919864281056652 0.21218269116454003 22.97719982662644 -5 6 1
1000 100 10 -0.358962 8.47066510300847 9.034403266909141 20.708047937194024 2 -4 -3
1089 109 9 -0.358962 9.143706280274657 4.6778013515097605 19.35398141149394 0 -1 1
1343 135 7 -0.358962 9.02832668626695 3.845606548180451 16.74509712262397 1 -3 -5
1345 135 8 -0.358962 10.751073946193864 1.6615847145145488 20.087296470781187 1 -3 -5
1127 113 5 0.404798 7.732573890572892 6.0317581154185085 22.350094567580808 1 0 0
1333 134 7 -0.358962 12.665335815285028 3.204913411522249 22.303686732050103 1 -1 1
1087 109 5 0.404798 10.21222919906638 5.112295829188284 19.476755048479397 0 -1 1
1090 109 10 -0.358962 11.662642497733225 7.24483595570478 21.80376676694929 0 -1 1
1081 109 1 -0.091672 12.546000173749679 5.583526685357712 18.94132519618429 0 -1 1
1289 129 9 -0.358962 14.586227255256382 7.263953270533517 22.523000054846232 -2 4 0
1084 109 4 0.404798 12.41879006883836 4.768719980816355 17.758392461213965 0 -1 1
1082 109 3 0.404798 13.901704499125417 6.21182855400581 19.271820867943234 0 -1 1
1341 135 1 -0.091672 8.818275105371532 1.8811078425649337 18.379716803661232 1 -3 -5
1344 135 4 0.404798 9.88940702459248 1.7749369173912133 19.31899865764475 1 -3 -5
1346 135 2 -0.091672 7.795755222374948 1.0155394596991576 18.350656470091337 1 -3 -5
549 55 9 -0.358962 3.3191893376744415 0.08759803553916268 18.06213248947779 -1 -3 -1
1312 132 3 0.404798 1.9486476959042744 0.13233010670189851 22.051577442427696 -5 6 1
1313 132 7 -0.358962 2.8661222972745604 0.08320270543964656 21.343462372508913 -5 6 1
1160 116 10 -0.358962 4.807397231525077 6.829182889200894 30.830593470167564 1 1 0
221 23 1 -0.091672 5.541067859421578 1.794118075682091 26.214146710193827 0 -4 -2
226 23 2 -0.091672 6.212964447842214 1.3352374696671476 25.14944788641689 0 -4 -2
222 23 3 0.404798 5.005875519450796 3.1062115264550845 26.109383000388675 0 -4 -2
1158 116 6 0.404798 4.747176301711914 7.913118384305478 30.421866985678722 1 1 0
1156 116 2 -0.091672 4.665478611978203 9.230603814172207 29.883330480427574 1 1 0
1157 116 5 0.404798 4.9144862980924024 9.393799670296705 28.528512039358183 1 1 0
1159 116 9 -0.358962 5.264324138669458 9.49400994820858 27.427071441593135 1 1 0
1151 116 1 -0.091672 4.334545707395124 10.325323374956605 30.5816660602349 1 1 0
989 99 9 -0.358962 4.834612447989068 4.22177771621709 29.117491971078795 1 -1 -3
987 99 5 0.404798 3.9312132508901074 4.269976134468148 29.843540738243668 1 -1 -3
223 23 7 -0.358962 4.498421428851498 4.148840792819469 26.077530744729707 0 -4 -2
832 84 3 0.404798 0.9712173284906155 9.751489813529187 23.78233396966062 0 -2 1
525 53 8 -0.358962 6.764991688532984 6.710701616169144 28.626894105783286 1 1 1
1243 125 7 -0.358962 13.728071628065836 0.27063126756049666 30.055376736211592 2 0 -5
224 23 4 0.404798 5.675516580545244 1.227868346438631 27.4399470866353 0 -4 -2
225 23 8 -0.358962 5.738077427460569 0.6773078794153063 28.459049302804956 0 -4 -2
1125 113 8 -0.358962 6.0543933895139395 7.308975643550215 25.023080121507565 1 0 0
524 53 4 0.404798 7.23630910068761 5.690401549728373 28.91403130760815 1 1 1
986 99 2 -0.091672 2.7876550968148357 4.133056963656789 30.622227138589274 1 -1 -3
228 23 6 0.404798 6.262026266104306 2.0930421983931238 23.92152762632144 0 -4 -2
836 84 2 -0.091672 1.197181166374498 7.335727651479758 23.960006614559624 0 -2 1
522 53 3 0.404798 7.34056720300487 3.7642060359152603 30.436770972904707 1 1 1
227 23 5 0.404798 7.015613371897717 0.15079924145239806 25.09619563518453 0 -4 -2
835 84 8 -0.358962 1.6169048234097352 8.58182585652244 27.07115939384357 0 -2 1
20 2 10 -0.358962 7.825274443454527 10.055356573225183 30.33532590228926 3 1 0
837 84 5 0.404798 1.4266397114901752 6.19838221551851 24.720377380006617 0 -2 1
988 99 6 0.404798 1.545625944348413 4.045628177402624 29.888274529125773 1 -1 -3
839 84 9 -0.358962 1.5801350739582662 5.235491940919008 25.348773386032793 0 -2 1
1603 161 7 -0.358962 11.751410980609158 9.846807809498584 26.887355558029906 2 -1 1
834 84 4 0.404798 1.4833932762981275 8.63501133292558 25.920096418916295 0 -2 1
1315 132 8 -0.358962 1.670907274503244 1.1835822034574122 25.18037160760162 -5 6 1
1124 113 4 0.404798 5.872959925751385 7.326601227646337 23.87749236940828 1 0 0
1334 134 4 0.404798 13.893972035781584 4.003502327016787 25.37522902086637 1 -1 1
530 53 10 -0.358962 9.411185456171749 1.349484387605083 28.41425032768714 1 1 1
526 53 2 -0.091672 8.254218876320778 3.636774029205866 28.137320851515124 1 1 1
527 53 5 0.404798 8.391177000564568 4.255727658215623 26.844157525584865 1 1 1
1242 125 3 0.404798 14.57426647392048 0.9959665914081637 30.377002300065623 2 0 -5
1241 125 1 -0.091672 15.5561018911469 1.8998399007383886 30.925463178608563 2 0 -5
1287 129 5 0.404798 14.534557111278131 7.3402968009284555 23.679331266743674 -2 4 0
192 20 3 0.404798 10.29322617185724 8.471817084956685 29.782935007575755 -2 2 2
1337 134 5 0.404798 11.987933166484856 2.9174984264682675 27.13272485752605 1 -1 1
521 53 1 -0.091672 7.659364230098536 4.321930799773534 29.123377746113 1 1 1
191 20 1 -0.091672 10.705936540101668 8.702056148269756 31.134825117030577 -2 2 2
1336 134 2 -0.091672 11.760866396822822 3.0429795154512678 25.716700670780988 1 -1 1
1340 134 10 -0.358962 9.60089636229192 1.8719667000121174 24.741093762862562 1 -1 1
1331 134 1 -0.091672 12.65645353295546 3.548719956183115 24.857776735150505 1 -1 1
1285 129 8 -0.358962 11.149661435489206 7.332052504976114 24.91191188406983 -2 4 0
1284 129 4 0.404798 12.218600115834846 7.3080184243610695 25.361792548008076 -2 4 0
1338 134 6 0.404798 10.562690510841339 2.3491086168400375 25.180283644554947 1 -1 1
193 20 7 -0.358962 10.080240840991886 8.151416484229266 28.688594695571542 -2 2 2
1283 129 7 -0.358962 13.864911380488126 7.15485711618825 28.460281032160847 -2 4 0
1282 129 3 0.404798 13.677687339055952 7.29189444095454 27.32372133564 -2 4 0
1281 129 1 -0.091672 13.505257769184878 7.346214626739153 25.892661144041906 -2 4 0
528 53 6 0.404798 8.908444325795191 2.389418247099643 28.307531211968577 1 1 1
529 53 9 -0.358962 8.492800673948565 4.7620367583044 25.805444973089415 1 1 1
1339 134 9 -0.358962 12.262675975243313 2.717818746411246 28.241888719009356 1 -1 1
753 76 7 -0.358962 13.049436943866517 0.1085026027127156 25.389048047070396 -2 0 -1
990 99 10 -0.358962 0.5274561748824833 4.014375609502571 29.33333885723471 1 -1 -3
155 16 8 -0.358962 0.5428980289202389 9.01567944756338 29.975620808162184 2 -1 -2
1335 134 8 -0.358962 14.897374637185427 4.303281005277952 25.87414391290308 1 -1 1
1286 129 2 -0.091672 14.59133054290155 7.397450100410371 25.109449240354596 -2 4 0
1314 132 4 0.404798 1.2396323771689617 0.8091855167029588 24.170703793439923 -5 6 1
265 27 8 -0.358962 12.879272660419483 10.180543830419397 29.43518709748191 -1 0 5
831 84 1 -0.091672 1.2555580752629576 8.553664651393966 24.515723834794116 0 -2 1
269 27 9 -0.358962 15.626686254660184 7.965740267071651 31.09310869449049 -1 0 5
1501 151 1 -0.091672 5.8006418927480725 19.00090683470557 3.6332232348951643 -1 1 -3
1504 151 4 0.404798 5.497752943353515 18.23850727153762 2.428043834111374 -1 1 -3
1508 151 6 0.404798 5.913026860928014 19.172246851830035 6.069634110618386 -1 1 -3
873 88 7 -0.358962 7.333343409765113 14.921999287664233 2.569832424317641 0 -1 0
1502 151 3 0.404798 6.094390599441304 20.39825173080863 3.4643255675755147 -1 1 -3
1506 151 2 -0.091672 5.527361452395157 18.51512459785035 4.851801690939225 -1 1 -3
725 73 8 -0.358962 2.347419922910241 19.474312064155637 6.769512555883957 1 -2 0
1507 151 5 0.404798 5.211283793293163 17.15260479699649 4.829161960747302 -1 1 -3
1505 151 8 -0.358962 5.241221780885587 17.724315748843164 1.4203738155082146 -1 1 -3
13 2 7 -0.358962 9.032860454914726 12.718463472104066 1.7663901456467757 3 1 1
381 39 1 -0.091672 10.290123615697256 20.62694537817471 4.132898959824509 -1 1 -2
872 88 3 0.404798 6.252724944220718 14.522734267350486 2.433997228277511 0 -1 0
871 88 1 -0.091672 4.910415998468573 14.131558147798481 2.2046160026625152 0 -1 0
878 88 6 0.404798 4.8232794349921 12.458107310459173 4.039256580678363 0 -1 0
876 88 2 -0.091672 4.277756120042272 13.259184516349757 3.001049157340536 0 -1 0
726 73 2 -0.091672 2.030371055346716 19.147655909386813 3.3845458701647337 1 -2 0
1509 151 9 -0.358962 5.0124977111787175 16.015807725065184 4.711788555571416 -1 1 -3
880 88 10 -0.358962 5.159195586435716 11.89346028842188 4.99525557794473 0 -1 0
697 70 5 0.404798 1.2266855970106052 14.186577948232875 7.2475247715242475 0 0 -1
699 70 9 -0.358962 1.4851942683320514 14.17014833953055 6.116815524950658 0 0 -1
877 88 5 0.404798 2.8834874381717612 12.927060783512527 2.7633222353553255 0 -1 0
724 73 4 0.404798 2.188301814684647 19.012309129400418 5.717450411890226 1 -2 0
1364 137 4 0.404798 13.159501061084182 14.465073636185918 1.3165992606620984 1 1 0
721 73 1 -0.091672 1.8776435007636805 18.401114306411127 4.486793549019126 1 -2 0
12 2 3 0.404798 8.442315560317834 11.759879811560259 2.0456285660972227 3 1 1
1510 151 10 -0.358962 6.263372910568547 19.541061018975544 7.112147324724509 -1 1 -3
383 39 7 -0.358962 12.229635814391923 20.81596580145919 5.765823784267803 -1 1 -2
1295 130 8 -0.358962 7.650735919307128 16.27552384001268 6.582417953771647 0 -1 -2
722 73 3 0.404798 1.3511294705986594 17.08327893622825 4.4969438614937465 1 -2 0
723 73 7 -0.358962 0.9109986944832772 16.01047173858712 4.465805016635317 1 -2 0
1296 130 2 -0.091672 9.217847522059735 13.54139292073567 4.970287878986708 0 -1 -2
874 88 4 0.404798 4.232383752941162 14.50388445493437 1.062937613591957 0 -1 0
879 88 9 -0.358962 1.7745503923669244 12.637409922127745 2.584545599760735 0 -1 0
1298 130 6 0.404798 10.118875061998606 12.875236368562938 4.141665122091909 0 -1 -2
389 39 9 -0.358962 8.289590546512729 20.85926312186793 1.2434329930294143 -1 1 -2
1294 130 4 0.404798 8.287659896349162 15.59967499321655 5.88732349344655 0 -1 -2
728 73 6 0.404798 1.8823498431859247 18.608438622859758 1.9841025723316006 1 -2 0
730 73 10 -0.358962 1.586203404214995 18.21361748666439 0.9343341966658744 1 -2 0
1366 137 2 -0.091672 11.581250478475154 15.826198241300595 0.09705515669960203 1 1 0
1291 130 1 -0.091672 9.155064733331347 14.879841808614938 4.9848791563577155 0 -1 -2
1300 130 10 -0.358962 10.9296827032786 12.362994673603083 3.489131982850166 0 -1 -2
1323 133 7 -0.358962 12.285414448941696 14.622722666869644 6.928505340211049 2 3 0
1324 133 4 0.404798 12.819481828802317 11.353139959367883 5.776874449243816 2 3 0
1325 133 8 -0.358962 13.375871322370726 10.767338411324193 4.944487943416576 2 3 0
875 88 8 -0.358962 3.710260555686735 14.666568438852066 0.03994138159789876 0 -1 0
1362 137 3 0.404798 13.057500605283948 16.82786725419488 1.7247958488202846 1 1 0
1322 133 3 0.404798 12.220091117275862 13.465129589059908 6.892295211045522 2 3 0
1293 130 7 -0.358962 10.603047792010443 16.22795443871275 3.3355949965374148 0 -1 -2
1035 104 8 -0.358962 13.270504570833987 17.656668043994728 6.810089000377141 1 0 -2
1365 137 8 -0.358962 13.583227269617135 13.424217847052937 1.6041324632092626 1 1 0
384 39 4 0.404798 9.463738170067176 19.48014127855059 4.426736934608471 -1 1 -2
1292 130 3 0.404798 9.940212178457575 15.585502952474007 4.038094144588166 0 -1 -2
1034 104 4 0.404798 12.361779493278782 17.95626790072855 7.4658775917805436 1 0 -2
1361 137 1 -0.091672 12.572857974908016 15.675057035668456 0.9855769209815345 1 1 0
385 39 8 -0.358962 8.777170014884508 18.604508499015218 4.7545957524411016 -1 1 -2
1363 137 7 -0.358962 13.506712745286542 17.71987635632159 2.3148197796443757 1 1 0
195 20 8 -0.358962 10.901720917619631 11.133447991156348 0.5154055804891394 -2 2 3
1321 133 1 -0.091672 12.184372320847384 12.020900876690883 6.828950314774815 2 3 0
1555 156 8 -0.358962 4.420152011429254 13.706430382120818 6.989746783003946 -2 2 1
1297 130 5 0.404798 8.35351125840784 12.782934595772346 5.9429631770519515 0 -1 -2
727 73 5 0.404798 2.5119195445471676 20.48666450348724 3.587220998017899 1 -2 0
1033 104 7 -0.358962 9.596374694768585 20.029513007016057 7.597148617135026 1 0 -2
1326 133 2 -0.091672 11.524322820373092 11.25660724701191 7.709739688678978 2 3 0
1299 130 9 -0.358962 7.726978272460108 12.277667479259225 6.778284518710784 0 -1 -2
1569 157 9 -0.358962 15.370520551300373 19.749907275653445 5.313607967532184 1 -1 0
205 21 8 -0.358962 15.600482920995818 10.782156711646241 7.326018027338741 -1 3 -3
382 39 3 0.404798 11.33232159765862 20.791724067380056 5.031086047544209 -1 1 -2
1368 137 6 0.404798 10.988743214448265 17.067463989441908 0.03965543182889775 1 1 0
852 86 3 0.404798 14.7621618136014 19.301077581185094 13.224420028547936 -1 0 3
741 75 1 -0.091672 7.820612555704123 11.371982092191262 13.361014948558617 3 2 1
698 70 6 0.404798 0.5821534400929342 15.69924592941831 8.97838764942862 0 0 -1
1556 156 2 -0.091672 3.9651002215301774 13.60396818631175 10.408800234553752 -2 2 1
743 75 7 -0.358962 7.08753983058744 13.828565809286523 12.935762562524257 3 2 1
1551 156 1 -0.091672 4.180116768337652 14.498921111086755 9.434927985922746 -2 2 1
1558 156 6 0.404798 3.8975145859200064 13.981725810628395 11.778378728828992 -2 2 1
1552 156 3 0.404798 4.184546203697813 15.933157668796843 9.654867307641485 -2 2 1
1560 156 10 -0.358962 3.8473513669083332 14.34223649360442 12.879794085903322 -2 2 1
742 75 3 0.404798 7.441523099482681 12.742856869343091 13.139556699232575 3 2 1
1557 156 5 0.404798 3.7468580849167 12.217736043852069 10.058088293971073 -2 2 1