LAMMPS data file via write_data, version 29 Sep 2021, timestep = 5000000

1620 atoms
10 atom types
1458 bonds
9 bond types
1620 angles
10 angle types
1944 dihedrals
12 dihedral types

0 31.303 xlo xhi
0 31.303 ylo yhi
0 31.303 zlo zhi

Masses

1 12.01
2 12.01
3 12.01
4 12.01
5 12.01
6 12.01
7 14.01
8 14.01
9 14.01
10 14.01

Bond Coeffs # harmonic

1 400 1.426
2 400 1.426
3 400 1.426
4 400 1.426
5 549 1.34
6 650 1.16
7 650 1.16
8 650 1.16
9 650 1.16

Angle Coeffs # harmonic

1 70 116.8
2 70 116.8
3 70 121.6
4 70 121.6
5 70 121.6
6 70 121.6
7 70 178.9
8 70 178.9
9 70 178.9
10 70 178.9

Dihedral Coeffs # opls

1 0 0 0 0
2 0 0 0 0
3 0 0 0 0
4 0 0 0 0
5 0 0 0 0
6 0 0 0 0
7 0 0 0 0
8 0 0 0 0
9 0 14 0 0
10 0 14 0 0
11 0 14 0 0
12 0 14 0 0

Atoms # full

114 12 4 0.404798 4.3091704866878615 0.3560413391932206 3.1786799589239543 1 0 1
115 12 8 -0.358962 4.313352751310643 1.5158843189929956 3.1973016591669 1 0 1
1606 161 2 -0.091672 6.137698306623821 4.163908087171707 5.305634736853328 0 1 0
1608 161 6 0.404798 5.960334703109758 5.5580482463245735 5.361923951230654 0 1 0
1605 161 8 -0.358962 5.495066712615321 0.8902103706214617 6.554089525705526 0 1 0
1604 161 4 0.404798 5.610767238251879 2.0350489239140592 6.4072628721607074 0 1 0
1601 161 1 -0.091672 5.546209491148253 3.4786482502588396 6.293642800302434 0 1 0
1610 161 10 -0.358962 5.94160361670207 6.713001526673073 5.468375970905137 0 1 0
1602 161 3 0.404798 4.927647124235433 4.208904894549311 7.341354208566202 0 1 0
453 46 7 -0.358962 2.719344618394571 3.893954922533142 4.928794617205438 2 0 0
635 64 8 -0.358962 2.5768495856388727 9.143074693459122 5.715426851214772 2 0 0
634 64 4 0.404798 1.9280660187062735 8.182431323890745 5.672483041720358 2 0 0
940 94 10 -0.358962 4.3185175129325275 4.236171106959206 1.6522147256295503 1 1 -1
631 64 1 -0.091672 1.0846725530985617 7.100597309178599 5.708346870799508 2 0 0
1607 161 5 0.404798 6.8089128265474566 3.656902162387711 4.15625961225735 0 1 0
1486 149 2 -0.091672 15.2433242332439 7.716986440605983 7.036463242526115 0 0 0
452 46 3 0.404798 1.7162272070165303 3.667903642132936 4.391899584822497 2 0 0
1128 113 6 0.404798 11.03713955459377 2.487457205576293 0.8332309513884651 1 0 2
938 94 6 0.404798 4.0266397946301 4.301240465213051 0.5314233271583971 1 1 -1
632 64 3 0.404798 0.4445352266172646 6.713150964076366 4.473428371773099 2 0 0
702 71 3 0.404798 5.181300700137445 10.140912710155204 2.226097020874994 1 0 0
451 46 1 -0.091672 0.4902369880516243 3.3168982673932406 3.7211780924787594 2 0 0
703 71 7 -0.358962 5.932816550620123 9.259111021557814 2.283102718733326 1 0 0
636 64 2 -0.091672 0.5959978982875785 6.742188716218018 6.9034788024688 2 0 0
713 72 7 -0.358962 4.894240426663574 0.9815083744224707 0.49588624018822797 0 -1 1
454 46 4 0.404798 0.27299701929361053 3.7321353925126433 2.3794247017335723 2 0 0
1127 113 5 0.404798 8.668758148914879 2.696485288595597 0.17985232566732595 1 0 2
119 12 9 -0.358962 1.8401186512997176 0.07605229064144936 5.397087268244274 1 0 1
633 64 7 -0.358962 0.0026834913378834813 6.455025382103823 3.432400896705811 2 0 0
466 47 2 -0.091672 10.074609022145944 9.046022978360858 5.597344510062805 0 0 0
1609 161 9 -0.358962 7.405884450136364 3.2511085210623185 3.2482087620439133 0 1 0
1484 149 4 0.404798 14.136514817186027 7.641566317119521 4.917864886769268 0 0 0
1465 147 8 -0.358962 9.319523949488756 1.0341827505671757 5.418827858149928 0 1 0
1485 149 8 -0.358962 13.218178353164332 7.303904957424106 4.294773460956703 0 0 0
470 47 10 -0.358962 9.368332012753935 7.158547933694789 7.195822334541404 0 0 0
1121 113 1 -0.091672 9.953383328414969 4.685080928453364 0.45209996372649436 1 0 2
464 47 4 0.404798 10.028395725913299 10.15254082988593 3.3881464391718805 0 0 0
455 46 8 -0.358962 0.10017351150996191 4.345319884648009 1.4100244835452997 2 0 0
1464 147 4 0.404798 10.352632992771062 1.4702192699868222 5.121914014153814 0 1 0
1123 113 7 -0.358962 11.928718461733476 6.285008158583756 0.9754590429110185 1 0 2
1462 147 3 0.404798 11.917616422014666 3.298291694202718 5.4060386826501015 0 1 0
463 47 7 -0.358962 8.416906048123135 7.1272407093396515 3.258690416759068 0 0 0
1126 113 2 -0.091672 9.901433029502826 3.3486789743076883 0.535352325785156 1 0 2
1122 113 3 0.404798 11.112597983345074 5.496568922027451 0.7348121854206187 1 0 2
462 47 3 0.404798 9.053287862779424 7.978982084046698 3.722538246941432 0 0 0
1470 147 10 -0.358962 15.018478298590553 1.6980129665009405 3.8724137959693588 0 1 0
1468 147 6 0.404798 13.887924366323755 1.4495114126935895 3.9478775839132156 0 1 0
1466 147 2 -0.091672 12.485552109384024 1.1916770895515603 4.095646426880317 0 1 0
1124 113 4 0.404798 8.79372140152247 5.395705797737266 0.005943165446419649 1 0 2
1487 149 5 0.404798 14.183650572495944 7.117810477341117 7.660634435295176 0 0 0
1481 149 1 -0.091672 15.21519944357097 8.027905544455713 5.733336891574035 0 0 0
468 47 6 0.404798 9.670260639293911 7.981774869034749 6.436390629672693 0 0 0
461 47 1 -0.091672 9.823710934261232 9.03078595653317 4.281131009447966 0 0 0
629 63 9 -0.358962 8.474861938954097 3.629102062791878 7.4569675018126285 -1 0 0
1130 113 10 -0.358962 12.02220176583537 1.9180524551675684 1.0591306220085708 1 0 2
1461 147 1 -0.091672 11.71345066562921 1.9524967013183963 4.883436288001937 0 1 0
1463 147 7 -0.358962 12.092806512159758 4.387160183245385 5.76558538351715 0 1 0
467 47 5 0.404798 10.673841286641805 10.133624353104414 6.27282700528309 0 0 0
406 41 2 -0.091672 4.007927296144111 6.139276894216169 11.795940531377841 0 1 0
401 41 1 -0.091672 5.014245784948425 6.290796598345754 10.924180915585229 0 1 0
404 41 4 0.404798 5.158606250910356 7.451405214037815 10.08258836235006 0 1 0
408 41 6 0.404798 3.8387092497977386 4.949797884638236 12.58932922218781 0 1 0
402 41 3 0.404798 5.996565373770298 5.256066988973563 10.77082219724044 0 1 0
403 41 7 -0.358962 6.738812432669675 4.390334708431721 10.558273567699205 0 1 0
407 41 5 0.404798 3.00697782086807 7.108218138081687 11.989552773509045 0 1 0
409 41 9 -0.358962 2.205091489206528 7.87222391758583 12.334333096768733 0 1 0
410 41 10 -0.358962 3.727294945896177 4.0011597761941555 13.247563672832674 0 1 0
639 64 9 -0.358962 1.3435710219714767 7.608412768931602 9.210790711965819 2 0 0
405 41 8 -0.358962 5.162856474680446 8.39670326671634 9.410283735256806 0 1 0
41 5 1 -0.091672 4.71550382297452 0.7521392655464461 13.566735501470374 -1 0 1
42 5 3 0.404798 4.925112843743471 1.4260289590435506 14.779204924865784 -1 0 1
313 32 7 -0.358962 0.7180187124145458 6.363793501837187 14.463520633264814 0 1 -1
19 2 9 -0.358962 0.6884756176741881 3.489623295106494 14.836352288440315 0 0 -1
532 54 3 0.404798 2.9754086065743075 1.484779180197427 9.861427232654329 0 1 0
320 32 10 -0.358962 1.083400409956671 4.725723394439693 10.894377255519231 0 1 -1
1114 112 4 0.404798 14.650308898371495 10.208467103533428 10.753336075133861 0 0 1
533 54 7 -0.358962 3.968225674442337 2.0844922889218314 9.877503710597473 0 1 0
1598 160 6 0.404798 4.0328701793998984 9.817763565952275 14.010284518850712 0 1 0
534 54 4 0.404798 0.7349650926521283 1.2958011295383496 10.380425686471039 0 1 0
1600 160 10 -0.358962 5.040189449641966 9.246181346159851 14.075104574768265 0 1 0
318 32 6 0.404798 0.03479785441228706 4.96767442634189 11.327381144759425 0 1 -1
245 25 8 -0.358962 7.635294514987178 0.3626241512003105 9.160314449203295 1 1 1
46 5 2 -0.091672 5.71938546425275 0.544837542148054 12.703689960554357 -1 0 1
531 54 1 -0.091672 1.8175052761989638 0.6652000292928258 9.757184775714075 0 1 0
44 5 4 0.404798 3.342281806177022 0.39511349048156325 13.364347457179594 -1 0 1
1253 126 7 -0.358962 12.903496634957683 5.83405962556159 14.986161422270065 1 0 0
1603 161 7 -0.358962 4.550630119459422 4.813002101663122 8.257064168168824 0 1 0
1111 112 1 -0.091672 14.26659781760348 10.317321132143224 12.087208646961127 0 0 1
1591 160 1 -0.091672 1.8527095736383854 10.274709621442016 14.878806133299305 0 1 0
50 5 10 -0.358962 7.9333723305548505 1.7153563173439426 13.04472090235001 -1 0 1
810 81 10 -0.358962 10.926978443143787 8.86167863143393 9.941173486151156 1 -1 0
1093 110 7 -0.358962 11.335900040501125 1.9530160837172124 11.693564121514466 -1 0 0
1100 110 10 -0.358962 13.401128900981966 0.16049217178322228 14.107808375071311 -1 0 0
45 5 8 -0.358962 2.2135287011995115 0.18513235382397397 13.198744483001166 -1 0 1
1260 126 10 -0.358962 9.119907777753209 4.716303236119964 13.78320181767602 1 0 0
48 5 6 0.404798 6.964605832536131 1.0957129518605861 12.892623671287724 -1 0 1
1113 112 7 -0.358962 13.095645126129554 8.243721625069654 12.958072942290853 0 0 1
1273 128 7 -0.358962 8.938200514647551 8.343581228710088 13.112786304729083 1 0 0
630 63 10 -0.358962 12.494816135733407 2.9301931472085854 8.984371958316691 -1 0 0
1489 149 9 -0.358962 13.184762562948972 6.755619845615412 8.12608114795312 0 0 0
625 63 8 -0.358962 8.380678087803497 7.007093074999402 10.504957403610003 -1 0 0
1272 128 3 0.404798 9.155872183612205 8.457763575814036 14.246444727918874 1 0 0
624 63 4 0.404798 9.13091418581496 6.167688944100253 10.225410457677377 -1 0 0
1258 126 6 0.404798 9.671080502873028 4.206648801057559 14.66754393534279 1 0 0
808 81 6 0.404798 10.234916186559662 9.79257462370081 9.95025429693454 1 -1 0
627 63 5 0.404798 9.272364680420244 3.9546411325895 8.233893292349498 -1 0 0
623 63 7 -0.358962 12.049781941143758 5.531678839857698 11.813006966100026 -1 0 0
1092 110 3 0.404798 11.319388917351795 0.8147290664414896 11.47078610242549 -1 0 0
626 63 2 -0.091672 10.306107230050362 4.26461887798733 9.114952127412762 -1 0 0
436 44 2 -0.091672 15.415744195620393 3.563710688710435 10.173405768290987 -1 0 1
432 44 3 0.404798 14.735027129462232 4.0469778591058745 12.467345936182879 -1 0 1
438 44 6 0.404798 15.487688545709078 2.206711660108973 10.532314979015574 -1 0 1
628 63 6 0.404798 11.515853922870255 3.5483570651061065 9.05583071012295 -1 0 0
1112 112 3 0.404798 13.594856109922313 9.204063801414096 12.540782632296432 0 0 1
622 63 3 0.404798 11.24684464428357 5.396862966027015 10.9867404482547 -1 0 0
431 44 1 -0.091672 15.098604773315907 4.447958126171808 11.128983626883535 -1 0 1
621 63 1 -0.091672 10.207407196723333 5.230904727081513 10.038071798155372 -1 0 0
433 44 7 -0.358962 14.561875984178863 3.7565975444805884 13.576984593160452 -1 0 1
440 44 10 -0.358962 15.446473368788777 1.1047732236431955 10.892360674151746 -1 0 1
1115 112 8 -0.358962 15.032316318883936 10.060399045604075 9.668095926287211 0 0 1
1256 126 2 -0.091672 10.378526167071437 3.490200388887133 15.643963475570212 1 0 0
1252 126 3 0.404798 12.33201072082024 4.959652323025141 15.490557812777903 1 0 0
637 64 5 0.404798 1.046092091817615 7.273492476848082 8.140774507879653 2 0 0
435 44 8 -0.358962 15.15537767396103 7.010214475103544 10.606556157632944 -1 0 1
434 44 4 0.404798 15.159965586110992 5.88242657513832 10.877984568516409 -1 0 1
11 2 1 -0.091672 2.2647298057401533 1.8556731344175454 17.395911952124088 0 0 -1
16 2 2 -0.091672 2.034934188863747 3.1009928991519757 16.957765120841042 0 0 -1
12 2 3 0.404798 3.120549574218279 1.5945765797530898 18.547288397622225 0 0 -1
233 24 7 -0.358962 4.452861840000559 4.134635773272103 20.82634137088641 -1 0 0
232 24 3 0.404798 5.550602752938917 4.083694306849767 20.454898446954235 -1 0 0
231 24 1 -0.091672 6.916663472909945 4.079972916196739 19.984447243167317 -1 0 0
352 36 3 0.404798 14.415059511399415 1.8267064052976798 23.428805338282647 0 1 0
239 24 9 -0.358962 10.40220268151297 4.46152973650716 19.822045152696212 -1 0 0
13 2 7 -0.358962 3.8177933104074553 1.4497053318383673 19.462964897563424 0 0 -1
1618 162 6 0.404798 5.38887382631328 8.701695969269466 21.763176917904527 0 1 -1
1592 160 3 0.404798 2.0598164152123752 9.63700251206799 16.13993294513082 0 1 0
234 24 4 0.404798 7.055752545275148 3.721832552912586 18.56378488379 -1 0 0
1593 160 7 -0.358962 2.3453836872452896 9.29585334812725 17.211225892734365 0 1 0
1080 108 10 -0.358962 0.6840941553349561 3.4773271880523935 20.39195739744601 0 0 0
235 24 8 -0.358962 7.023153842819302 3.5718060289106583 17.413989540415116 -1 0 0
263 27 7 -0.358962 6.333443354384915 1.5101416585271825 22.779603297435603 1 0 0
1620 162 10 -0.358962 5.436589104859059 8.912272259298916 20.623448516791594 0 1 -1
1251 126 1 -0.091672 11.577681298968779 3.8704244361315148 16.105544047500025 1 0 0
257 26 5 0.404798 11.7018440161965 9.18791309423588 23.196571031550636 0 0 0
20 2 10 -0.358962 3.013756636415477 5.252988522592506 18.00185070866237 0 0 -1
43 5 7 -0.358962 5.0726056181268 2.022587527967621 15.763056414522687 -1 0 1
1071 108 1 -0.091672 0.03251772960931672 6.68294895082873 21.241360865961987 0 0 0
1078 108 6 0.404798 0.28361944630437924 4.560888790643756 20.286533210089623 0 0 0
197 20 5 0.404798 13.582422672545277 10.36234218729489 19.1536674705972 0 1 0
236 24 2 -0.091672 7.9432622298409195 4.364053172700791 20.79746224418479 -1 0 0
238 24 6 0.404798 7.6646634838839525 4.785382913874592 22.153957091450398 -1 0 0
240 24 10 -0.358962 7.5067106367677345 5.102641534976446 23.258492212757094 -1 0 0
14 2 4 0.404798 1.6173112956186384 0.7354771193777141 16.677728439865085 0 0 -1
1277 128 5 0.404798 9.573814648108069 10.059603330710704 17.454727192932367 1 0 0
1072 108 3 0.404798 0.23097531617574735 6.205471811426056 22.51206814604781 0 0 0
1616 162 2 -0.091672 5.397094184333078 8.627849461791488 23.212855789846124 0 1 -1
18 2 6 0.404798 2.627946263360054 4.256354217259204 17.550773768997438 0 0 -1
1613 162 7 -0.358962 1.9474596879607156 8.636525711447597 22.676422488317606 0 1 -1
1274 128 4 0.404798 9.766649631799247 7.593614254146607 16.439517302767296 1 0 0
195 20 8 -0.358962 12.801484471666106 8.834830331905055 15.97300837677421 0 1 0
1276 128 2 -0.091672 9.383638643710738 9.975753806070495 16.081792043120423 1 0 0
198 20 6 0.404798 14.131345800862023 8.501161927278964 20.627899776804576 0 1 0
397 40 5 0.404798 10.240711989052377 0.678951211904825 20.687537246801707 0 -1 -1
1275 128 8 -0.358962 10.04519719236262 6.602011457168807 16.973123096385486 1 0 0
252 26 3 0.404798 11.650433400118258 5.3920283707258445 23.407968739212798 0 0 0
194 20 4 0.404798 13.10028750260273 8.461190440230869 17.029753369053026 0 1 0
1255 126 8 -0.358962 13.133884904239016 2.223878721972224 17.32104487020902 1 0 0
237 24 5 0.404798 9.323975149789545 4.3394985383601306 20.23208631461783 -1 0 0
262 27 3 0.404798 5.274471172441998 1.5896429306389344 23.24635532767012 1 0 0
200 20 10 -0.358962 14.572753155848448 8.049340542389878 21.60084221049531 0 1 0
256 26 2 -0.091672 11.368979745071005 7.818274894442706 23.11160634240526 0 0 0
260 26 10 -0.358962 9.429669373455463 7.313624546244704 21.472532993271074 0 0 0
1259 126 9 -0.358962 9.22062865726727 1.3586540188051388 16.52264343861525 1 0 0
196 20 2 -0.091672 13.618797133903662 9.013454652598263 19.352455935441718 0 1 0
1257 126 5 0.404798 9.760947420115127 2.3240197498583104 16.173752946327834 1 0 0
193 20 7 -0.358962 13.48807684163425 5.555958272283215 18.554780285125855 0 1 0
353 36 7 -0.358962 15.164518721899638 2.4435554936938146 22.793661190125473 0 1 0
1254 126 4 0.404798 12.409470250403128 2.9640748106870753 16.798614864435013 1 0 0
253 26 7 -0.358962 11.403830595256753 4.287502369119508 23.153391940602347 0 0 0
191 20 1 -0.091672 13.471022791055367 8.126627436579867 18.35882611241388 0 1 0
192 20 3 0.404798 13.490915337610554 6.712428487055684 18.464400096643196 0 1 0
399 40 9 -0.358962 10.750815808442171 1.4112875082847245 21.42853497650351 0 -1 -1
258 26 6 0.404798 10.346253560633862 7.518761300254458 22.153262262661656 0 0 0
1279 128 9 -0.358962 9.846587474253049 9.994552574796622 18.58032186251347 1 0 0
1612 162 3 0.404798 2.94643480335073 8.612681879509921 23.265557594051902 0 1 -1
259 26 9 -0.358962 12.040037763419033 10.291697934437854 23.310078805632028 0 0 0
1271 128 1 -0.091672 9.46421817739903 8.709222031983936 15.65167093224542 1 0 0
17 2 5 0.404798 1.2773460014001172 3.3965709617635964 15.8314265844224 0 0 -1
935 94 8 -0.358962 2.854062075703362 5.1898425430615855 27.183878304753982 1 1 -2
934 94 4 0.404798 2.8978996605082057 5.305572067286613 28.337258092933226 1 1 -2
266 27 2 -0.091672 3.348930412644783 2.8396982538017377 24.204492212354115 1 0 0
932 94 3 0.404798 2.60997755310724 6.447916298990064 30.5632673384782 1 1 -2
270 27 10 -0.358962 4.425097437942963 5.21821458394619 23.946186653536603 1 0 0
1614 162 4 0.404798 4.290244397206802 8.24297643232619 25.312548154945397 0 1 -1
267 27 5 0.404798 2.014920641512715 2.8099676366357103 24.79515343049604 1 0 0
931 94 1 -0.091672 3.0874407431920923 5.368398275877185 29.82397978708617 1 1 -2
715 72 8 -0.358962 7.77345072148141 0.3118911225669713 28.59915508684621 0 -1 0
1615 162 8 -0.358962 4.411492572811871 7.966739423074578 26.432633860470382 0 1 -1
1195 120 8 -0.358962 5.59741160903884 2.004989994330957 26.289239053103557 0 0 0
578 58 6 0.404798 15.283495116351277 4.842249737238333 28.150563625708266 0 1 -1
1194 120 4 0.404798 6.449989101349713 2.7710587879643 26.467705349281125 0 0 0
1552 156 3 0.404798 0.7846216323642938 9.87539999910356 27.945728657090896 0 0 0
88 9 6 0.404798 9.627883703165473 10.304086841265708 27.514137665661803 0 0 -1
939 94 9 -0.358962 4.910849039019306 2.4663704838378324 29.146391706994955 1 1 -2
937 94 5 0.404798 4.356346569516049 3.2902982018530844 29.745783159048138 1 1 -2
936 94 2 -0.091672 3.715117110320066 4.367199812761251 30.455821549237402 1 1 -2
1611 162 1 -0.091672 4.262644438595331 8.511625726940242 23.916500445860496 0 1 -1
84 9 4 0.404798 6.314400949351172 9.695369247694394 29.100934938713596 0 0 -1
1242 125 3 0.404798 0.6372862479454048 0.07690107541204227 29.17590942903815 1 1 0
81 9 1 -0.091672 7.328627814994051 10.101204426504397 28.20408726209431 0 0 -1
264 27 4 0.404798 3.3112289978146805 0.3595626504674953 24.118594610984623 1 0 0
712 72 3 0.404798 5.324353655084844 0.20240617488584564 31.05484163895476 0 -1 0
85 9 8 -0.358962 5.4776217016993485 9.28432675821157 29.791184566658576 0 0 -1
269 27 9 -0.358962 0.9565361466551758 2.724618085278692 25.26220557930058 1 0 0
261 27 1 -0.091672 3.9593446002101085 1.6952938869601295 23.867842320546547 1 0 0
663 67 7 -0.358962 0.29886066884899165 7.079318158693788 26.69088759680673 1 0 -1
1553 156 7 -0.358962 1.831530576079108 9.431273893828955 27.716963134487944 0 0 0
1192 120 3 0.404798 7.185516352704858 5.0232345032615875 26.87046275538329 0 0 0
1191 120 1 -0.091672 7.513127791489049 3.683633677139452 26.483475091143816 0 0 0
1243 125 7 -0.358962 1.7911073142283416 0.06668933915467354 29.295042354048462 1 1 0
1193 120 7 -0.358962 6.880237466156745 6.109845812276823 27.138195199730283 0 0 0
1568 157 6 0.404798 15.084461827762937 10.019347335608472 26.22100027857954 1 0 0
268 27 6 0.404798 3.92826880261026 4.170390720876262 23.9749346555441 1 0 0
665 67 8 -0.358962 0.15910731816084184 3.3418881578916912 29.021149318859194 1 0 -1
254 26 4 0.404798 13.05196257511689 7.01944760602092 24.60543756063117 0 0 0
577 58 5 0.404798 13.10434952026258 4.767456420243227 29.095771038826005 0 1 -1
1617 162 5 0.404798 6.662791369486191 8.511942923777687 23.848966653587983 0 1 -1
1570 157 10 -0.358962 14.11646167694795 9.94048704616162 26.855316243749964 1 0 0
87 9 5 0.404798 9.07513558560956 9.269586068829057 29.636028850716627 0 0 -1
351 36 1 -0.091672 13.52755082398953 1.218232768632511 24.30323890254974 0 1 0
355 36 8 -0.358962 12.294763118794817 2.4981911937805017 26.109796248066576 0 1 0
251 26 1 -0.091672 11.968352275984437 6.778845889793228 23.708213326778154 0 0 0
576 58 2 -0.091672 14.213211926117703 5.502114264079146 28.739120212732253 0 1 -1
1196 120 2 -0.091672 8.749413358737776 3.2903880957555023 26.147981561403547 0 0 0
89 9 9 -0.358962 9.408656031904355 8.94051989666451 30.697197810823752 0 0 -1
86 9 2 -0.091672 8.627611407762195 9.949361738597121 28.4959526826547 0 0 -1
1199 120 9 -0.358962 9.138422204768446 0.7776134644864924 25.54053626308107 0 0 0
933 94 7 -0.358962 2.1783989713427356 7.2635327556289475 31.266196720084167 1 1 -2
1200 120 10 -0.358962 10.72284438686785 4.921014339017152 26.283276047304373 0 0 0
575 58 8 -0.358962 12.435777126848324 8.325680472673245 29.875557685607536 0 1 -1
571 58 1 -0.091672 14.250176537136246 6.8396007266720975 28.812356564942945 0 1 -1
1198 120 6 0.404798 9.84689451975647 4.169237185776587 26.168633377440006 0 0 0
255 26 8 -0.358962 13.974123512893454 7.404684722882894 25.194344654515266 0 0 0
1400 140 10 -0.358962 10.486635078148991 1.3633141930406791 28.64686015317846 0 0 -1
1398 140 6 0.404798 11.038354978468258 0.43404548960515976 29.068363129205885 0 0 -1
354 36 4 0.404798 12.783850150681337 1.9164559909071062 25.233452699867044 0 1 0
1197 120 5 0.404798 8.94957271378395 1.9078848918851175 25.720598373119003 0 0 0
579 58 9 -0.358962 12.113611847460371 4.268950038762652 29.43566843556148 0 1 -1
1619 162 9 -0.358962 7.6850784891245025 8.412654268206847 24.38810557401443 0 1 -1
574 58 4 0.404798 13.238718274687137 7.681103088380397 29.34132415246029 0 1 -1
1073 108 7 -0.358962 0.4345155604383978 5.725190770645167 23.548167311248182 0 0 0
572 58 3 0.404798 15.445115875837375 7.550317360053597 28.462639816580186 0 1 -1
1125 113 8 -0.358962 7.834361862029346 5.940028114953827 30.949857546998075 1 0 1
1129 113 9 -0.358962 7.600756291425148 2.404795155973871 31.136602580845427 1 0 1
742 75 3 0.404798 4.3358944414477945 17.19724331274754 6.096232875833627 1 1 1
741 75 1 -0.091672 4.73423922221995 18.55459486856817 6.087563906246246 1 1 1
746 75 2 -0.091672 5.038739216454502 19.265257756209945 7.182021744971697 1 1 1
744 75 4 0.404798 4.888889432493637 19.213437996890214 4.902343811748664 1 1 1
1215 122 8 -0.358962 2.3592411985307464 13.236032812904789 5.894600066690743 1 0 1
502 51 3 0.404798 0.08009889249924845 14.987196474811425 0.5344186710580558 2 1 1
745 75 8 -0.358962 5.002789959253553 19.792880180404246 3.9039083282499343 1 1 1
708 71 6 0.404798 5.130547432193299 12.44881854246089 3.7987235369244123 1 0 0
706 71 2 -0.091672 4.271704499448356 12.328004677019312 2.7666264238555502 1 0 0
707 71 5 0.404798 3.390233831010915 13.444143737946396 2.6501420361583037 1 0 0
501 51 1 -0.091672 0.2484022324000525 16.415504959267935 0.36405153138899315 2 1 1
710 71 10 -0.358962 5.756146492080768 12.552068473755664 4.770096414004789 1 0 0
701 71 1 -0.091672 4.3314744167363415 11.260722852750614 1.9585812124057909 1 0 0
709 71 9 -0.358962 2.654767538338673 14.338524885566002 2.581064610094559 1 0 0
747 75 5 0.404798 5.23590239574142 20.683056244358074 7.226615009290787 1 1 1
1479 148 9 -0.358962 5.64404774580515 14.84570077057142 0.9123215877316756 1 0 0
363 37 7 -0.358962 0.548574187299691 16.006220652163396 6.078193224769426 1 0 -1
488 49 6 0.404798 13.882575932681421 11.805314599594169 0.26065548687042056 -1 -1 0
743 75 7 -0.358962 3.8268654537932747 16.15489992296146 6.099354320572798 1 1 1
304 31 4 0.404798 1.8452439952024624 20.766295717827454 2.7860223300250007 1 0 0
605 61 8 -0.358962 0.5885837401597398 11.22619380227561 2.900770719102582 0 0 1
484 49 4 0.404798 10.879074368837651 13.874852869925926 1.3275955140009987 -1 -1 0
505 51 8 -0.358962 0.9816912029286872 17.94891608645947 2.29247456412456 2 1 1
485 49 8 -0.358962 9.949202262810187 14.560803675331 1.4296216089478262 -1 -1 0
595 60 8 -0.358962 7.3422372961540825 17.050850358051964 4.69018021646479 0 -1 1
301 31 1 -0.091672 0.9011744739162892 20.6625257150778 3.9028667490664524 1 0 0
959 96 9 -0.358962 15.353548084483963 14.74421448564141 0.6362771765472274 1 1 1
1214 122 4 0.404798 3.24187795532964 13.102413830556948 6.635341797258874 1 0 1
482 49 3 0.404798 12.635101616492461 12.963443003297488 2.576108547455767 -1 -1 0
483 49 7 -0.358962 13.14937683832051 12.739821653907738 3.591546609095779 -1 -1 0
490 49 10 -0.358962 14.860439195930322 11.192462287185363 0.3781095569626097 -1 -1 0
504 51 4 0.404798 0.6372095823730539 17.171805111542277 1.5031515008081515 2 1 1
201 21 1 -0.091672 14.839946557372617 13.513430018366567 6.861553546966305 0 -1 0
1477 148 5 0.404798 6.360273071898808 15.406784390732586 0.19273394989383572 1 0 0
895 90 8 -0.358962 10.956723440555507 19.445609836073654 6.383647635491042 -1 0 -1
469 47 9 -0.358962 11.218046426666985 11.026539665599579 6.774965442255142 0 0 0
303 31 7 -0.358962 1.9741293235257666 19.57881250201272 5.968415882488553 1 0 0
591 60 1 -0.091672 9.133968017347891 15.757506025190239 6.067776678859634 0 -1 1
594 60 4 0.404798 8.140863527940802 16.443795284181018 5.272657916651361 0 -1 1
1212 122 3 0.404798 5.440540395517376 13.578052678153744 7.6251516426065855 1 0 1
302 31 3 0.404798 1.4681364495255669 20.014628184508194 5.01992451028822 1 0 0
465 47 8 -0.358962 10.078019564345132 11.041017061876119 2.6440043483354194 0 0 0
204 21 4 0.404798 14.632626945114524 12.21600982420476 6.381472782509351 0 -1 0
767 77 5 0.404798 9.903341862292702 18.981430243393284 2.6964572420398207 1 -1 2
596 60 2 -0.091672 9.232169380181633 15.91301813860998 7.395094452232101 0 -1 1
202 21 3 0.404798 13.776984705656178 14.445556530142852 6.694128643284334 0 -1 0
481 49 1 -0.091672 12.11432137817278 13.193435671595966 1.3308665752245261 -1 -1 0
766 77 2 -0.091672 9.572361567058874 20.131715436960416 1.9639646508283686 1 -1 2
761 77 1 -0.091672 9.928309471233254 20.312817382979087 0.6848621719050833 1 -1 2
769 77 9 -0.358962 10.245922445336726 18.040501745312444 3.2820271217137185 1 -1 2
486 49 2 -0.091672 12.592448368923554 12.51142053726591 0.28117618599293803 -1 -1 0
893 90 7 -0.358962 13.947527247419012 18.302790399359438 3.428641776871077 -1 0 -1
203 21 7 -0.358962 12.871065305545617 15.16387206762048 6.599615127929464 0 -1 0
592 60 3 0.404798 9.655915597040538 14.677426942955337 5.3510590443064325 0 -1 1
896 90 2 -0.091672 14.404229594801858 19.231575384732427 6.736677094407524 -1 0 -1
894 90 4 0.404798 12.06349209849423 19.235693001471965 6.106884175381756 -1 0 -1
704 71 4 0.404798 3.605932525219787 11.217287057816874 0.7162942682218322 1 0 0
892 90 3 0.404798 13.71891512734772 18.620044302566203 4.5207436124084825 -1 0 -1
891 90 1 -0.091672 13.429864009282802 18.944607637472043 5.862685562971457 -1 0 -1
593 60 7 -0.358962 10.156622763603186 13.888186818591162 4.664042045744015 0 -1 1
205 21 8 -0.358962 14.482252336594476 11.132954791745922 5.99420120930493 0 -1 0
1211 122 1 -0.091672 4.221107310172742 12.855331417864692 7.660823150887741 1 0 1
1213 122 7 -0.358962 6.492612487667138 14.05177512739506 7.505438097362968 1 0 1
305 31 8 -0.358962 2.7244610724948037 20.79355103802173 2.0298249945953364 1 0 0
764 77 4 0.404798 10.651006006661497 19.284889419849684 0.01198948803923372 1 -1 2
849 85 9 -0.358962 0.07941033493290206 10.54073139286694 0.022495077322663093 1 1 0
154 16 4 0.404798 5.377975249681633 15.157308620926823 13.163836391388813 0 0 0
442 45 3 0.404798 1.303160908266421 15.939775946411638 12.69382028976227 1 -1 0
151 16 1 -0.091672 6.3756019011603815 14.9442849776052 14.167820198869158 0 0 0
443 45 7 -0.358962 1.661542581403374 16.676555551274895 13.514989203691812 1 -1 0
1389 139 9 -0.358962 4.786851834090763 18.603039806369253 14.11776647309026 0 0 1
1387 139 5 0.404798 5.086046209618408 19.49473282572842 13.438821505028303 0 0 1
155 16 8 -0.358962 4.4563699773826855 15.356182780552455 12.4880459026313 0 0 0
444 45 4 0.404798 1.6048703377690425 15.06131487122261 10.511121138433442 1 -1 0
1217 122 5 0.404798 2.713614182831195 11.284698773305996 8.694239413723063 1 0 1
1599 160 9 -0.358962 2.604385882922557 12.050568629530202 11.855794502796304 0 1 0
1278 128 6 0.404798 8.977701387042767 11.05421175098903 15.277345942175627 1 0 0
1596 160 2 -0.091672 2.817442443262426 10.501652430135126 13.976926197440307 0 1 0
441 45 1 -0.091672 0.8217748840400324 15.0842692948322 11.655962078544448 1 -1 0
1216 122 2 -0.091672 3.9092504747493955 12.065271114770846 8.697235235409623 1 0 1
1385 139 8 -0.358962 2.163426312057719 19.399274066395154 11.337490629788606 0 0 1
1597 160 5 0.404798 2.68705685040749 11.33894160664054 12.768128036022164 0 1 0
1218 122 6 0.404798 4.961881208206257 11.77590952060258 9.640037381910439 1 0 1
1219 122 9 -0.358962 1.740002833973272 10.659341051329976 8.77553303475645 1 0 1
1386 139 2 -0.091672 5.240513650778945 20.540928007475877 12.606054891554322 0 0 1
750 75 10 -0.358962 4.998032574458878 18.038592519340007 9.449813797116775 1 1 1
445 45 8 -0.358962 2.2108023057038113 15.163868200975916 9.527287183735066 1 -1 0
1169 117 9 -0.358962 15.641304781442338 17.858820628985868 14.480007331186515 -1 0 1
1384 139 4 0.404798 3.1161907014118997 20.033957051615022 11.524620286803984 0 0 1
1220 122 10 -0.358962 5.758298554159774 11.37704574763294 10.383157214402008 1 0 1
748 75 6 0.404798 5.018451557988417 18.585538249062218 8.4270560413531 1 1 1
1280 128 10 -0.358962 8.595346460180155 11.941575362198387 14.635481079217525 1 0 0
598 60 6 0.404798 10.061377623084635 15.023308485744083 8.214497713227562 0 -1 1
897 90 5 0.404798 14.095291098594307 19.838195701618453 7.978042958685489 -1 0 -1
156 16 2 -0.091672 6.1331786924520415 14.268885754641905 15.299485730002424 0 0 0
1381 139 1 -0.091672 4.320909641186582 20.830079274560465 11.67529177221587 0 0 1
597 60 5 0.404798 8.62291516168359 17.019813112143126 8.095382201249917 0 -1 1
807 81 5 0.404798 8.426111599807282 10.973286437638826 8.923718608204753 1 -1 0
1594 160 4 0.404798 0.5664874915610505 10.942908214871807 14.758547311971045 0 1 0
599 60 9 -0.358962 8.190646322678885 17.92697550886962 8.674864711463629 0 -1 1
523 53 7 -0.358962 14.020668604518145 20.007290964200845 12.430707244200796 0 0 0
809 81 9 -0.358962 7.665486216979105 11.136714251055395 8.063288283644061 1 -1 0
1118 112 6 0.404798 14.226936671879285 11.573878604609774 14.17666808475832 0 0 1
1117 112 5 0.404798 15.05009186401624 12.559160336720101 12.136583005192294 0 0 1
524 53 4 0.404798 13.02195514234755 17.37261480838996 10.525137875296036 0 0 0
801 81 1 -0.091672 9.354409396060767 11.744017357459565 10.952849384171852 1 -1 0