LAMMPS data file via write_data, version 29 Sep 2021, timestep = 5000000

1620 atoms
10 atom types
1458 bonds
9 bond types
1620 angles
10 angle types
1944 dihedrals
12 dihedral types

0 31.303 xlo xhi
0 31.303 ylo yhi
0 31.303 zlo zhi

Masses

1 12.01
2 12.01
3 12.01
4 12.01
5 12.01
6 12.01
7 14.01
8 14.01
9 14.01
10 14.01

Bond Coeffs # harmonic

1 400 1.426
2 400 1.426
3 400 1.426
4 400 1.426
5 549 1.34
6 650 1.16
7 650 1.16
8 650 1.16
9 650 1.16

Angle Coeffs # harmonic

1 70 116.8
2 70 116.8
3 70 121.6
4 70 121.6
5 70 121.6
6 70 121.6
7 70 178.9
8 70 178.9
9 70 178.9
10 70 178.9

Dihedral Coeffs # opls

1 0 0 0 0
2 0 0 0 0
3 0 0 0 0
4 0 0 0 0
5 0 0 0 0
6 0 0 0 0
7 0 0 0 0
8 0 0 0 0
9 0 14 0 0
10 0 14 0 0
11 0 14 0 0
12 0 14 0 0

Atoms # full

413 42 7 -0.358962 3.281474269844304 7.218554838288095 0.472874579744442 4 -1 0
412 42 3 0.404798 2.2857181870882286 6.744441644045059 0.8324388988326136 4 -1 0
411 42 1 -0.091672 1.1415584777424173 6.090130147839175 1.3322499184891416 4 -1 0
414 42 4 0.404798 0.7836377460733044 4.842013434079075 0.6367726095475038 4 -1 0
415 42 8 -0.358962 0.3331897317387112 3.937202898567561 0.06754991207111978 4 -1 0
677 68 5 0.404798 7.156533410395344 4.464768818575287 6.223429774909163 3 2 -1
676 68 2 -0.091672 6.867311351655635 3.3328160688115402 5.497897891392512 3 2 -1
671 68 1 -0.091672 7.647875727388916 2.243635888812423 5.4954916918150705 3 2 -1
52 6 3 0.404798 1.5871193912375183 1.6830926543702387 2.814015054968196 2 3 2
678 68 6 0.404798 5.756826952664878 3.4316109697218944 4.621174000037291 3 2 -1
675 68 8 -0.358962 9.673378905395367 2.229689402401503 7.103469899237239 3 2 -1
425 43 8 -0.358962 4.359049303862665 1.4167225158417978 1.525375140389607 -1 1 -1
1609 161 9 -0.358962 3.8201026678939103 6.653731205152606 4.167608821771904 -1 0 2
1607 161 5 0.404798 4.655883068617931 7.363204101153042 4.546712147352508 -1 0 2
680 68 10 -0.358962 4.764237737604853 3.541991839539781 4.031103908491026 3 2 -1
416 42 2 -0.091672 0.4857746515756885 6.4683913959346295 2.4379017629868533 4 -1 0
1039 104 9 -0.358962 11.817323915947432 0.8382821341312594 4.160256255706462 0 0 -1
672 68 3 0.404798 7.320057560590418 1.1094828177582448 4.74722090175627 3 2 -1
421 43 1 -0.091672 6.624914732471059 2.048170804523802 0.4998519031183267 -1 1 -1
495 50 8 -0.358962 6.277464518643097 5.445923848222145 0.11990162903729909 -1 4 0
673 68 7 -0.358962 7.1506473048517245 0.17164377214620516 4.085890357364334 3 2 -1
1606 161 2 -0.091672 5.590627409598053 8.34840473538366 4.899080221368619 -1 0 2
53 6 7 -0.358962 1.5867574395152724 2.7692225125970533 3.2213500519685785 2 3 2
1608 161 6 0.404798 6.384200841740434 8.99264670076013 3.9209546835650144 -1 0 2
494 50 4 0.404798 7.271188614533183 5.789552708796617 0.6098318551462141 -1 4 0
424 43 4 0.404798 5.378505774304889 1.744909945409409 1.0797278409981281 -1 1 -1
418 42 6 0.404798 0.8444871076369455 7.742474782446888 3.022570114097567 4 -1 0
737 74 5 0.404798 1.8020654756836645 2.778873410545215 6.310328669846097 1 2 -1
1604 161 4 0.404798 4.896702873676849 8.250890335144506 7.2293403088543515 -1 0 2
732 74 3 0.404798 1.2807018926868503 6.4710888077905135 6.345105592684729 1 2 -1
731 74 1 -0.091672 1.7811592809996795 5.131379555957618 6.453897651748079 1 2 -1
51 6 1 -0.091672 1.3812189225989653 0.3014043139940308 2.358499117591706 2 3 2
1610 161 10 -0.358962 7.015135978239742 9.553661046204365 3.1254776208585575 -1 0 2
1037 104 5 0.404798 12.277199495316028 0.7270808862547484 5.219382656527448 0 0 -1
1601 161 1 -0.091672 5.658140202651638 8.795911950009495 6.160341223223517 -1 0 2
385 39 8 -0.358962 15.46841949359137 0.5755417652298304 0.0038348224075398646 1 2 1
734 74 4 0.404798 3.1720361175431964 5.003388513378513 6.680684301510639 1 2 -1
733 74 7 -0.358962 1.0191666002047706 7.587019637256396 6.166506391931303 1 2 -1
736 74 2 -0.091672 1.143556593713317 3.9938902914232814 6.1453834931529245 1 2 -1
1602 161 3 0.404798 6.597994836925468 9.851387941276593 6.542878601318914 -1 0 2
739 74 9 -0.358962 2.2760319740812474 1.7218752511100277 6.371243765067262 1 2 -1
420 42 10 -0.358962 1.0580081045063767 8.803489087544753 3.4400116384812724 4 -1 0
492 50 3 0.404798 8.862098921966352 5.7708878688338885 2.533110591167902 -1 4 0
422 43 3 0.404798 7.670832645987963 2.2371194859759456 1.4175972436603974 -1 1 -1
480 48 10 -0.358962 13.54437221129559 3.774447969716019 2.5318108532419417 0 2 -1
1036 104 2 -0.091672 12.73229907868892 0.761567227391303 6.575413542704432 0 0 -1
478 48 6 0.404798 14.555394208738376 4.341950516331783 2.4947247445960907 0 2 -1
1289 129 9 -0.358962 14.635338643853704 5.742188547891102 6.915445644511111 -2 -1 2
1290 129 10 -0.358962 13.59010949412891 8.352709359495028 3.5701843559244404 -2 -1 2
735 74 8 -0.358962 4.29342727270186 5.006094728679964 6.977457872189318 1 2 -1
423 43 7 -0.358962 8.571433936307987 2.30415693618073 2.145624232172083 -1 1 -1
1031 104 1 -0.091672 13.721517006027948 1.5478142713022285 7.0213546567471 0 0 -1
54 6 4 0.404798 0.2910135526774132 0.1580205324250284 1.5559351860114767 2 3 2
500 50 10 -0.358962 11.79119783469098 7.236379463339162 1.5099318776261992 -1 4 0
1286 129 2 -0.091672 12.79915434292563 7.200321263432391 5.777108679069109 -2 -1 2
496 50 2 -0.091672 9.491330278431306 6.8325003465128145 0.488509426995581 -1 4 0
1287 129 5 0.404798 13.788824718506573 6.37195512304412 6.43335827280623 -2 -1 2
1035 104 8 -0.358962 14.987593353163813 2.9363510989575032 5.24647870829466 0 0 -1
1034 104 4 0.404798 14.491771962514404 2.33980150064361 6.108969128640685 0 0 -1
493 50 7 -0.358962 9.268746366934598 5.526954824711671 3.591758087994834 -1 4 0
1288 129 6 0.404798 13.204782704178422 7.827054878926929 4.5297731377946135 -2 -1 2
491 50 1 -0.091672 8.538808032611577 6.186350130655937 1.1746517367333376 -1 4 0
1283 129 7 -0.358962 9.892665406946657 8.716353828371565 4.592144451034354 -2 -1 2
1281 129 1 -0.091672 11.506181464302871 7.384929088349995 6.076676844159823 -2 -1 2
383 39 7 -0.358962 11.673123353151944 2.7304182427737835 0.4194115325310373 1 2 1
1282 129 3 0.404798 10.657277950624866 8.147930938611696 5.253856680675056 -2 -1 2
1284 129 4 0.404798 10.801076646052822 6.568451578091656 7.057155568541254 -2 -1 2
498 50 6 0.404798 10.761146395366602 6.983592198353769 1.040152535054277 -1 4 0
679 68 9 -0.358962 7.5117076429636755 5.371198859787983 6.854172071347978 3 2 -1
674 68 4 0.404798 8.703289282218254 2.151976348235205 6.472211788666343 3 2 -1
608 61 6 0.404798 14.629781676972373 9.060135873934703 7.677058627053572 1 3 -2
610 61 10 -0.358962 14.995486538229049 9.507961764211307 6.671418569828971 1 3 -2
765 77 8 -0.358962 9.815668588394386 10.1652895254839 0.11695337075435493 0 -1 3
462 47 3 0.404798 2.2688722364243357 6.919506392491792 10.69250072631347 -1 0 -3
466 47 2 -0.091672 2.8140350214042753 4.625202785792096 10.493483841286094 -1 0 -3
461 47 1 -0.091672 1.9955209281349933 5.640194594268533 10.184572353795167 -1 0 -3
1312 132 3 0.404798 6.323145517061657 8.411142497466821 11.798624891995303 -1 1 2
1191 120 1 -0.091672 7.034902399490891 1.4118221221832463 11.561088250031707 0 0 -2
1605 161 8 -0.358962 4.235940036800717 8.01284146988643 8.152554916127022 -1 0 2
1192 120 3 0.404798 7.006559388005235 0.6977918638614552 12.790837285217929 0 0 -2
468 47 6 0.404798 4.0048521537020445 4.632610692297121 11.276038235560197 -1 0 -3
604 61 4 0.404798 14.432522014152585 7.682530201492838 11.148107191381504 1 3 -2
469 47 9 -0.358962 2.1617128617595687 2.227648977917909 9.935604312994954 -1 0 -3
1313 132 7 -0.358962 6.503301897381853 7.265700843750207 11.765351866438651 -1 1 2
463 47 7 -0.358962 2.4747215171115764 8.015201431168572 11.012935516249541 -1 0 -3
467 47 5 0.404798 2.5206325526028284 3.297280166018032 10.20517021708687 -1 0 -3
1001 101 1 -0.091672 3.075066141206314 0.29821116221331034 13.880475576722105 0 1 -1
1316 132 2 -0.091672 5.275469215622573 10.337759521835032 12.746928417122142 -1 1 2
470 47 10 -0.358962 4.984810635663981 4.641100782349111 11.896690546387811 -1 0 -3
1007 101 5 0.404798 1.4262372273266297 1.6219520500041305 15.152077393160745 0 1 -1
1004 101 4 0.404798 3.968775750462514 1.38085958628844 13.751540884126966 0 1 -1
1320 132 10 -0.358962 4.110186956165458 8.899969281785362 14.571054314959223 -1 1 2
744 75 4 0.404798 1.205727189730589 10.11940557779613 14.43549962949711 2 3 1
1005 101 8 -0.358962 4.7047217554351715 2.273748493074321 13.669486789687518 0 1 -1
1425 143 8 -0.358962 7.830851467574242 7.790330540418359 15.507964501537527 -1 2 0
1006 101 2 -0.091672 1.9711265506938318 0.3968218044821229 14.633597956833702 0 1 -1
1318 132 6 0.404798 4.632182692370084 9.51120711319709 13.734687909425832 -1 1 2
464 47 4 0.404798 0.7401231441191992 5.366876496502045 9.615073797675715 -1 0 -3
1194 120 4 0.404798 6.064374595790414 0.9337842757307661 10.619961928774625 0 0 -2
1195 120 8 -0.358962 5.301311661655877 0.6202692856858567 9.804460053482682 0 0 -2
341 35 1 -0.091672 9.64168259060777 8.264470920230771 11.620404886546067 -1 0 0
1197 120 5 0.404798 7.5445446808296746 3.3016426734275535 10.157878553738604 0 0 -2
1199 120 9 -0.358962 7.264044110019215 4.045406083725573 9.313049921374649 0 0 -2
1159 116 9 -0.358962 0.9355914940578781 5.71708536417933 14.792836859063755 1 -1 0
1471 148 1 -0.091672 14.744073315623785 3.688990536411449 11.998372151360973 2 -1 -2
1311 132 1 -0.091672 6.084437934484145 9.758479297907979 11.84937394315361 -1 1 2
344 35 4 0.404798 9.279744657664184 9.524183565316275 12.244728944853124 -1 0 0
1196 120 2 -0.091672 7.769221143154348 2.5029455458733354 11.304523137579395 0 0 -2
1198 120 6 0.404798 8.575968383117766 3.022598971231705 12.380716563048017 0 0 -2
1032 104 3 0.404798 14.212799921980647 1.4345367910631701 8.300609574493961 0 0 -1
606 61 2 -0.091672 14.160178923337513 8.476431197242775 8.890869353507671 1 3 -2
343 35 7 -0.358962 8.541635551513007 7.670932766370018 9.413992429353728 -1 0 0
350 35 10 -0.358962 11.31861891979869 5.290662022696734 11.196880611160909 -1 0 0
745 75 8 -0.358962 0.7918793959736563 9.072891042357675 14.716813209951782 2 3 1
1033 104 7 -0.358962 14.752014895729788 1.4545893399044316 9.327471350345984 0 0 -1
607 61 5 0.404798 12.715688760843548 8.29105372133531 8.991393564022863 1 3 -2
1200 120 10 -0.358962 9.357875215025564 3.3739666312117036 13.162229501982141 0 0 -2
347 35 5 0.404798 11.095789364616081 7.895177174049916 13.535093159322102 -1 0 0
1474 148 4 0.404798 14.595025872032595 4.309323050910154 10.711593986622217 2 -1 -2
609 61 9 -0.358962 11.563177679059011 8.189845204564362 9.07550682705466 1 3 -2
342 35 3 0.404798 9.025123911590095 7.983972725289252 10.420891127977809 -1 0 0
655 66 8 -0.358962 0.547295141584671 10.067775213986781 8.721403598490113 -1 -1 0
601 61 1 -0.091672 14.943365686963874 8.15379323634457 9.929196488599104 1 3 -2
1475 148 8 -0.358962 14.442099258791615 4.906922121484887 9.729204654405457 2 -1 -2
346 35 2 -0.091672 10.63827425875311 7.576620815478952 12.19422304622312 -1 0 0
348 35 6 0.404798 11.118148683874123 6.295934814387844 11.739870755232296 -1 0 0
1472 148 3 0.404798 13.613949929299915 2.9274155888285223 12.552864393984349 2 -1 -2
605 61 8 -0.358962 14.148487169112661 7.394342609407272 12.235246611110906 1 3 -2
1473 148 7 -0.358962 12.632253595782068 2.388841751397366 12.855866916814607 2 -1 -2
349 35 9 -0.358962 11.395510693404526 8.12579776610774 14.631715823440341 -1 0 0
1193 120 7 -0.358962 6.999815128627437 0.26402192543446645 13.86666169079392 0 0 -2
1009 101 9 -0.358962 1.0610851131245465 2.626444225390211 15.602920384467799 0 1 -1
1285 129 8 -0.358962 10.339710739545279 5.873690265375439 7.863411246130519 -2 -1 2
219 22 9 -0.358962 7.083353951008417 5.7499009034431126 18.284284649644462 -1 2 0
1433 144 7 -0.358962 2.513705843582826 9.66821059481479 20.8495795009571 -2 2 -2
317 32 5 0.404798 14.044966620821036 4.271496785782401 22.41999937915288 2 1 0
1546 155 2 -0.091672 1.5927272739086107 4.4273996547588155 20.20886476466803 0 1 -2
1541 155 1 -0.091672 1.0671690549647668 5.086158677644267 21.250702134627343 0 1 -2
1547 155 5 0.404798 2.9375691621349147 3.9437496059166586 20.101129287068076 0 1 -2
1435 144 8 -0.358962 6.747901345212411 10.409146768061738 22.103261643901266 -2 2 -2
1548 155 6 0.404798 0.8208144235426563 4.243869712959896 19.070312657496732 0 1 -2
725 73 8 -0.358962 4.25894238939182 3.087508564538123 16.839627878029734 2 0 0
1424 143 4 0.404798 7.5906055445651335 8.699067548210646 16.18772839199727 -1 2 0
1157 116 5 0.404798 0.3941976258461682 6.256832454715896 15.665284998770817 1 -1 0
1273 128 7 -0.358962 10.795353917424011 5.805810515070771 18.19064395206804 0 0 0
1616 162 2 -0.091672 0.07380887743108507 0.6612809607369451 22.68007760369011 0 2 0
1549 155 9 -0.358962 4.006964496068762 3.4955376772607196 20.134290808714937 0 1 -2
1130 113 10 -0.358962 7.048013011614559 1.8867043120632312 22.44948406614041 -1 0 1
1544 155 4 0.404798 1.8192211324398904 5.323031080300358 22.44069821110704 0 1 -2
1426 143 2 -0.091672 6.263870513028338 9.90293377138754 17.914802026316938 -1 2 0
1158 116 6 0.404798 0.44766032722346955 8.100898209811465 17.194962752116016 1 -1 0
1427 143 5 0.404798 5.093231623170709 9.017982543121116 17.763599037629607 -1 2 0
726 73 2 -0.091672 6.342176520820935 0.4669720454633208 17.3447124436523 2 0 0
905 91 8 -0.358962 4.605176889371962 7.146035841288326 22.736538159037615 -2 -5 -2
723 73 7 -0.358962 8.784529986096958 2.8656461115162606 16.706146484694905 2 0 0
1550 155 10 -0.358962 0.18003391237228702 4.131785403934558 18.109876588535542 0 1 -2
724 73 4 0.404798 5.2598378553491605 2.5137274613318965 16.96039008623114 2 0 0
1160 116 10 -0.358962 1.0277405339431784 8.973851735435291 17.692013147193716 1 -1 0
685 69 8 -0.358962 13.324941830510705 2.7259743377626067 19.818825381728224 -1 -1 1
721 73 1 -0.091672 6.4883800263486915 1.7793762322647795 17.117072853364615 2 0 0
1429 143 9 -0.358962 4.154530266985897 8.345123053855264 17.655433093686064 -1 2 0
1275 128 8 -0.358962 14.907732984585405 5.190498076705349 16.99678386754081 0 0 0
217 22 5 0.404798 7.6712558499288495 6.291001031085573 19.125225794013545 -1 2 0
1025 103 8 -0.358962 2.048445052840667 1.4066480526250165 19.072464027499386 -1 1 0
1249 125 9 -0.358962 8.064970533388463 0.6198057948451281 19.983861953556175 -1 1 0
684 69 4 0.404798 13.814059037530035 2.0997537316862047 18.973714672935962 -1 -1 1
1421 143 1 -0.091672 7.3030521834287345 9.790400157913309 17.076328626803523 -1 2 0
1274 128 4 0.404798 14.017117244512612 5.932129599381945 17.04563351128528 0 0 0
1276 128 2 -0.091672 13.293274829167636 8.058503924585693 17.1776779266917 0 0 0
1277 128 5 0.404798 14.54424161307427 8.542501187385852 16.697014654990973 0 0 0
1279 128 9 -0.358962 15.491849262583054 9.068111215218602 16.283041419785338 0 0 0
1278 128 6 0.404798 12.310277754224431 9.078082755154032 17.44007907983637 0 0 0
212 22 3 0.404798 9.815489714425345 6.684149641500447 22.26581224366933 -1 2 0
688 69 6 0.404798 14.872758007560677 0.1096176370844382 16.001597977034788 -1 -1 1
320 32 10 -0.358962 12.594295357715623 7.085498886403425 20.971631547612823 2 1 0
687 69 5 0.404798 12.558597626810247 0.7354235905270997 16.718946845513116 -1 -1 1
318 32 6 0.404798 13.42551263642175 6.346830519616886 21.3018540171494 2 1 0
1272 128 3 0.404798 11.740010936113094 6.220304570472475 17.660155691079957 0 0 0
319 32 9 -0.358962 13.659532772771248 3.228419294490003 22.750196434318323 2 1 0
213 22 7 -0.358962 10.466387547527134 7.040097451290912 23.157570712784523 -1 2 0
681 69 1 -0.091672 14.529160525813225 1.2912916666909364 18.012532348351026 -1 -1 1
214 22 4 0.404798 8.960618030335018 4.7854434306859455 21.070872763467456 -1 2 0
215 22 8 -0.358962 8.763541893790089 3.6516440975172446 20.92506444045022 -1 2 0
686 69 2 -0.091672 13.969293871644618 0.7366351859205037 16.928786290691175 -1 -1 1
1271 128 1 -0.091672 12.964982294215673 6.759911711355499 17.216178241162595 0 0 0
1280 128 10 -0.358962 11.533715259008392 9.866740177583834 17.787311222281648 0 0 0
316 32 2 -0.091672 14.47491707705176 5.477160552777521 21.882800179263935 2 1 0
211 22 1 -0.091672 9.140231255566256 6.15848959717326 21.085070010566824 -1 2 0
689 69 9 -0.358962 11.411263815466134 0.753322564544656 16.548932877080937 -1 -1 1
722 73 3 0.404798 7.706121902947468 2.468284016183152 16.863434027838807 2 0 0
216 22 2 -0.091672 8.470900014049926 6.906781483441051 20.197570747602846 -1 2 0
218 22 6 0.404798 8.518787231917669 8.304675264434723 20.189610576552454 -1 2 0
220 22 10 -0.358962 8.653607793321594 9.44924299094586 20.057746499336652 -1 2 0
1024 103 4 0.404798 1.6848677496976021 0.3051082696809453 19.077117067669526 -1 1 0
1432 144 3 0.404798 3.2629849130496122 10.225214711633479 21.53800327261674 -2 2 -2
1128 113 6 0.404798 7.964544741211606 1.568329532016464 23.085256893140812 -1 0 1
1618 162 6 0.404798 0.9577165470413502 1.6041516721282247 23.395636573545364 0 2 0
142 15 3 0.404798 11.950076530894298 7.107026483090032 26.351400823250025 0 1 0
1551 156 1 -0.091672 3.84743923113715 7.122778375182392 28.480752791505996 2 0 1
1560 156 10 -0.358962 4.1394281719361015 9.786855439092236 26.351935166315954 2 0 1
1558 156 6 0.404798 3.7181719264653044 8.822776634514595 26.840499627886768 2 0 1
1552 156 3 0.404798 4.9613493013582275 7.773860305031093 29.052468429845582 2 0 1
1556 156 2 -0.091672 3.251832557934764 7.56723612942294 27.36571467837165 2 0 1
429 43 9 -0.358962 5.051407000162388 1.4142686310284078 28.81762507380541 -1 1 -2
901 91 1 -0.091672 5.48684817816168 5.846385531130996 24.790012158242526 -2 -5 -2
1553 156 7 -0.358962 5.870979426257958 8.397350667977896 29.4122361357564 2 0 1
1557 156 5 0.404798 2.115597438983795 6.883253043397757 26.800375665013327 2 0 1
1559 156 9 -0.358962 1.1857435992347853 6.252766894003092 26.511482863470672 2 0 1
908 91 6 0.404798 7.097894605084615 5.315399991865415 26.489305357909583 -2 -5 -2
942 95 3 0.404798 1.535594332166404 0.9321769200225327 29.8987999415501 -1 1 2
426 43 2 -0.091672 6.830800923860228 2.271349647221863 30.497707436121818 -1 1 -2
427 43 5 0.404798 5.804367555698308 1.8617565706144505 29.578154458525788 -1 1 -2
941 95 1 -0.091672 0.706498170627959 1.293470303408741 28.79779757033675 -1 1 2
910 91 10 -0.358962 7.398854646254935 4.551064826589799 27.30833820650787 -2 -5 -2
903 91 7 -0.358962 4.073261721631375 3.735882390321333 25.242966306003105 -2 -5 -2
902 91 3 0.404798 4.759923816708918 4.653711612806084 25.06496438284627 -2 -5 -2
906 91 2 -0.091672 6.612052489293352 6.156106759480238 25.44848616416227 -2 -5 -2
1554 156 4 0.404798 3.523615871850933 5.833281298590199 29.042000731322926 2 0 1
943 95 7 -0.358962 2.249518076436704 0.6022825910252859 30.751491338820426 -1 1 2
1405 141 8 -0.358962 0.7102312011513241 8.016897505023962 24.37675345802712 -1 -1 -2
1555 156 8 -0.358962 3.250821715872778 4.820155039933372 29.536731498987407 2 0 1
944 95 4 0.404798 0.19615915259469585 2.587789350761838 28.81544150538611 -1 1 2
1126 113 2 -0.091672 9.104053536687744 1.2967083987676884 23.962993492110478 -1 0 1
1121 113 1 -0.091672 9.150534175311531 0.2333036618466425 24.77700203966933 -1 0 1
1620 162 10 -0.358962 1.5743925773140808 2.4009620954609083 23.97044421325587 0 2 0
382 39 3 0.404798 12.466149688472166 2.379320161681251 30.952061373777294 1 2 0
907 91 5 0.404798 7.394471456154755 7.257944387621158 25.09397541099284 -2 -5 -2
909 91 9 -0.358962 8.04863807524013 8.183418855301438 24.846663780074305 -2 -5 -2
650 65 10 -0.358962 14.515904479693914 6.032306044184159 24.861287473501758 -2 1 -3
389 39 9 -0.358962 15.639445616298937 1.4155939503482988 27.477608134680224 1 2 0
647 65 5 0.404798 14.199042366843143 9.549881306346174 24.58792201547247 -2 1 -3
428 43 6 0.404798 8.104123159156751 2.7004085753206795 30.074558527823722 -1 1 -2
646 65 2 -0.091672 15.166269855168949 8.519897843720813 24.754788397413737 -2 1 -3
146 15 2 -0.091672 12.569377942229199 8.084640496178029 28.5098980058483 0 1 0
143 15 7 -0.358962 11.882897762413009 6.282375057385998 25.538358980175367 0 1 0
1127 113 5 0.404798 10.233111729038768 2.210945379916139 23.85750749058696 -1 0 1
497 50 5 0.404798 9.307172821832292 7.328008907851737 30.45198028296626 -1 4 -1
430 43 10 -0.358962 9.172299331141918 3.114799335296116 29.89323019859698 -1 1 -2
946 95 2 -0.091672 0.3488621007128066 0.4035359499131787 27.86200203303382 -1 1 2
387 39 5 0.404798 14.699407063243866 1.7780076525784023 28.052572330296833 1 2 0
1129 113 9 -0.358962 11.108101077328529 2.9706550388207473 23.804263953301916 -1 0 1
381 39 1 -0.091672 13.562817314534666 1.9557654961177884 30.17296805404844 1 2 0
499 50 9 -0.358962 9.222247686889032 7.748365884697084 29.374164096047384 -1 4 -1
648 65 6 0.404798 14.772159313993079 7.160371134712853 24.77524904667894 -2 1 -3
1124 113 4 0.404798 10.306114466348502 0.011292075803030599 25.616157091772138 -1 0 1
904 91 4 0.404798 4.98717207883611 6.5887529272276 23.67946733385446 -2 -5 -2
149 15 9 -0.358962 12.601717641082837 10.159313892694104 30.064232085132733 0 1 0
141 15 1 -0.091672 12.004010607985753 8.126967649186255 27.295744725230666 0 1 0
147 15 5 0.404798 12.595154183658558 9.216294359264275 29.38875367655168 0 1 0
150 15 10 -0.358962 14.059568157198642 6.026411666001013 29.14686836856265 0 1 0
144 15 4 0.404798 11.458590168542754 9.34950079732171 26.816025194335634 0 1 0
390 39 10 -0.358962 11.931282991044466 3.811590182686079 27.669606192823466 1 2 0
388 39 6 0.404798 12.644149538322585 3.141756412480039 28.293099581449766 1 2 0
148 15 6 0.404798 13.32507215802359 6.903271614377056 28.953911747369283 0 1 0
386 39 2 -0.091672 13.575856056875956 2.1963927281378113 28.854814600799923 1 2 0
384 39 4 0.404798 14.635085213123737 1.2246132023858396 30.827397396010618 1 2 0
145 15 8 -0.358962 10.92868624096048 10.252406328143056 26.316461955194903 0 1 0
649 65 9 -0.358962 13.376311750104131 10.367577735971079 24.57860114919756 -2 1 -3
1545 155 8 -0.358962 2.279089305162024 5.50807525843836 23.489449808811607 0 1 -2
447 45 5 0.404798 2.3008744199178306 17.451472343204767 3.959625578651764 -1 0 0
658 66 6 0.404798 4.49272535140484 12.244572897519147 7.033253425530074 -1 -1 0
660 66 10 -0.358962 5.421985122349574 12.70819659400306 6.516407853572795 -1 -1 0
775 78 8 -0.358962 7.836397571793675 17.675294747863596 3.7422469934951788 1 -2 0
774 78 4 0.404798 7.718874978697554 18.810091161050448 3.5324243542860185 1 -2 0
665 67 8 -0.358962 11.936702556804502 10.947651900964544 2.3005528287470662 1 0 -1
651 66 1 -0.091672 2.256818991559544 11.221277158765496 7.16743297887857 -1 -1 0
1232 124 3 0.404798 1.4470507972956823 12.717041637299875 1.932296548489875 -3 -1 1
1236 124 2 -0.091672 3.73320338265702 11.97367025260032 2.084650925107262 -3 -1 1
449 45 9 -0.358962 2.363861752955601 16.313815564536018 3.741979883593454 -1 0 0
1231 124 1 -0.091672 2.489970549129746 11.846779399859736 1.6010489884890162 -3 -1 1
1238 124 6 0.404798 4.115182537134377 12.982667281946666 2.9949716161753965 -3 -1 1
1240 124 10 -0.358962 4.496633398304544 13.716371548615697 3.8084661086180747 -3 -1 1
446 45 2 -0.091672 2.337169296383737 18.86417620003876 4.133978900557676 -1 0 0
1603 161 7 -0.358962 7.350277964820973 10.70916967048904 6.752355567822461 -1 0 2
1052 106 3 0.404798 14.877280042437095 17.573470292730963 4.237228221467654 0 0 1
777 78 5 0.404798 6.54727290905239 19.501854189863273 1.0877884934836386 1 -2 0
450 45 10 -0.358962 4.298794557464615 20.119806264321635 5.287283295925409 -1 0 0
441 45 1 -0.091672 1.3037039148090601 19.673883800924933 3.8657944383302802 -1 0 0
1233 124 7 -0.358962 0.5916327536992615 13.43149015914977 2.253891448873896 -3 -1 1
533 54 7 -0.358962 6.25443755990198 15.533062499379987 1.4351959437341677 0 -2 1
652 66 3 0.404798 2.000243922835043 11.129178552214825 5.787241115298392 -1 -1 0
771 78 1 -0.091672 7.501033422705925 20.15094131788042 3.230858389305086 1 -2 0
1134 114 4 0.404798 3.1429947972712964 20.234844803453328 1.2646998831819845 1 0 -1
1186 119 2 -0.091672 13.996662333491768 16.5410813810427 0.7622933883167567 0 -1 -1
448 45 6 0.404798 3.42873791530231 19.513953473539217 4.816598863882997 -1 0 0
1187 119 5 0.404798 13.627255755275721 15.155905848900586 0.6329102857761126 0 -1 -1
1100 110 10 -0.358962 6.217119349616492 18.333905408326913 6.297812600264702 -2 -1 2
776 78 2 -0.091672 6.923996713548916 20.51558367018983 2.077747557374148 1 -2 0
1133 114 7 -0.358962 1.9910059095005332 17.068478959543704 0.731183974003952 1 0 -1
1182 119 3 0.404798 15.617077605044807 18.310745571280737 1.0686392306463042 0 -1 -1
653 66 7 -0.358962 1.74594024983712 11.152222091279535 4.655694105330344 -1 -1 0
1310 131 10 -0.358962 1.4961019704910634 16.93421743250919 7.072233148971472 0 0 -1
670 67 10 -0.358962 7.1915221704465 13.944408337463 4.260448819880571 1 0 -1
1054 106 4 0.404798 14.733654676765317 19.430790903986697 5.721097410179864 0 0 1
661 67 1 -0.091672 9.809063383161783 12.460839657224819 2.653475920513368 1 0 -1
779 78 9 -0.358962 6.518324795244859 18.57587291765159 0.3897049102660751 1 -2 0
79 8 9 -0.358962 14.80132152678209 11.901342279311681 2.6705388379342265 1 1 -1
484 49 4 0.404798 13.315877570973129 13.580288179753905 4.909834981708301 -1 0 1
1188 119 6 0.404798 12.891377969901942 17.45708881335911 1.0200366023568685 0 -1 -1
667 67 5 0.404798 10.008209187174412 12.039347893004432 4.990341590000205 1 0 -1
1181 119 1 -0.091672 15.273406036778733 16.947697893519322 0.7760239088319288 0 -1 -1
963 97 7 -0.358962 8.654428246737536 16.281866935206548 7.4558764086386535 -1 0 0
1189 119 9 -0.358962 13.417280681221143 14.038034363105586 0.4051520608538484 0 -1 -1
961 97 1 -0.091672 10.224457149102316 17.273634512970833 5.638488407794939 -1 0 0
668 67 6 0.404798 8.153396738677381 13.323066754312757 4.075159987662875 1 0 -1
962 97 3 0.404798 9.367992414531177 16.69782409642713 6.641379129445973 -1 0 0
967 97 5 0.404798 11.674407374959605 19.173046729842405 4.917190673858218 -1 0 0
662 67 3 0.404798 9.321147521685711 13.134067323942986 1.5458112352890967 1 0 -1
969 97 9 -0.358962 12.1837540408195 19.81714601908366 4.097860411611642 -1 0 0
482 49 3 0.404798 13.929017730108736 12.237295360869524 6.752383837251396 -1 0 1
666 67 2 -0.091672 9.294329970650853 12.556815715263083 3.8869418137015175 1 0 -1
663 67 7 -0.358962 8.883382004390233 13.733730543096891 0.6545394622275711 1 0 -1
964 97 4 0.404798 10.346185074714825 16.657267358106903 4.363059622301389 -1 0 0
965 97 8 -0.358962 10.340064035973397 16.227507581823478 3.285623281995121 -1 0 0
1055 106 8 -0.358962 14.177101102194138 20.13194808852338 6.4588146461235425 0 0 1
1190 119 10 -0.358962 12.044767362717927 18.221643259192692 1.230528829620983 0 -1 -1
481 49 1 -0.091672 14.390384211886822 13.050721442837801 5.719834238071854 -1 0 1
966 97 2 -0.091672 10.893178864521166 18.40731061011444 5.88986416928192 -1 0 0
664 67 4 0.404798 10.968479926857674 11.579950247380369 2.3918968999748143 1 0 -1
968 97 6 0.404798 10.938900122991145 18.921803583353586 7.235504773362133 -1 0 0
485 49 8 -0.358962 12.512680006461613 14.084559658914094 4.241864964730946 -1 0 1
1053 106 7 -0.358962 14.4017666180593 16.636721464552632 3.745304837192813 0 0 1
755 76 8 -0.358962 11.500281076239471 14.732458258998212 7.440965849765177 3 -2 3
669 67 9 -0.358962 10.536436991145528 11.53239302778909 5.890103864962128 1 0 -1
1308 131 6 0.404798 0.6733168345050901 16.11710391819132 7.103057241157803 0 0 -1
1237 124 5 0.404798 4.749865749167444 11.307477457119516 1.4193344377307018 -3 -1 1
1239 124 9 -0.358962 5.610969061622714 10.670516820477125 0.9739332352329494 -3 -1 1
532 54 3 0.404798 6.77306635543268 15.678519839471795 0.40783703189723497 0 -2 1
1234 124 4 0.404798 2.289203503612784 11.031238110196192 0.44386943035290943 -3 -1 1
1132 114 3 0.404798 2.3999398738495716 18.12085033276263 0.46493689809092853 1 0 -1
444 45 4 0.404798 0.07101499298218372 19.189101201721098 3.1907978350603563 -1 0 0
1098 110 6 0.404798 6.274714837588195 18.610571843504722 7.422863018236336 -2 -1 2
1131 114 1 -0.091672 2.968827146901888 19.36748121897064 0.16315491857311107 1 0 -1
1051 106 1 -0.091672 15.520063730038078 18.65122701740158 4.837389923556127 0 0 1
656 66 2 -0.091672 3.393568435109856 11.72963306331088 7.662382447678726 -1 -1 0
483 49 7 -0.358962 13.545607008938848 11.542352791394629 7.5983454459085005 -1 0 1
1096 110 2 -0.091672 6.26495022394481 18.866404445163255 8.826415385156993 -2 -1 2
243 25 7 -0.358962 2.2702982296377408 16.051081046588543 10.83080614759644 -3 -1 -2
1091 110 1 -0.091672 5.157947516179473 19.29741756586211 9.44639336382428 -2 -1 2
750 75 10 -0.358962 3.0282204448276424 14.645366044529439 14.570829419801703 2 3 1
989 99 9 -0.358962 4.190598358608656 15.142604695641202 8.779837645132774 -1 0 1
748 75 6 0.404798 2.632874549865076 13.587155847077078 14.83444429026842 2 3 1
1315 132 8 -0.358962 6.991239940900191 11.041849111480355 9.80058566994739 -1 1 2
746 75 2 -0.091672 2.2332512005507366 12.245873895368574 15.095695256005218 2 3 1
981 99 1 -0.091672 6.6512748988790324 14.952942235228072 11.175520115865659 -1 0 1
987 99 5 0.404798 5.202496257301938 14.904291193117981 9.294492205263394 -1 0 1
1092 110 3 0.404798 3.9531637783378746 19.383209579627817 8.68259829801676 -2 -1 2
986 99 2 -0.091672 6.354974477467384 14.514864777103295 9.94430356281477 -1 0 1
242 25 3 0.404798 1.3459717550268882 16.08991841574855 11.53060056531884 -3 -1 -2
1317 132 5 0.404798 5.102120812179661 11.79416110199538 12.878419355320045 -1 1 2
1319 132 9 -0.358962 4.975707375317993 12.947252363645278 12.878845051864582 -1 1 2
988 99 6 0.404798 7.385439303259248 13.89675676989279 9.103520227520367 -1 0 1
982 99 3 0.404798 7.945273999979848 14.678796694010362 11.764946844420374 -1 0 1
984 99 4 0.404798 5.677230326872161 15.771951438857336 11.87095904544674 -1 0 1
985 99 8 -0.358962 4.89916866228751 16.412686704444415 12.445135294512268 -1 0 1
1094 110 4 0.404798 5.02989367701473 19.48497657459584 10.860303611994006 -2 -1 2