LAMMPS data file via write_data, version 29 Sep 2021, timestep = 1000000

1800 atoms
10 atom types
1620 bonds
9 bond types
1800 angles
10 angle types
2160 dihedrals
12 dihedral types

0 31.1593 xlo xhi
0 31.7161 ylo yhi
0 30.9215 zlo zhi
1.94205101732187e-15 1.89339579999174e-15 1.89339579999174e-15 xy xz yz

Masses

1 12.01
2 12.01
3 12.01
4 12.01
5 12.01
6 12.01
7 14.01
8 14.01
9 14.01
10 14.01

Pair Coeffs # lj/cut/coul/long

1 0.076 3.55
2 0.076 3.55
3 0.066 3.3
4 0.066 3.3
5 0.066 3.3
6 0.066 3.3
7 0.17 3.2
8 0.17 3.2
9 0.17 3.2
10 0.17 3.2

Bond Coeffs # harmonic

1 400 1.426
2 400 1.426
3 400 1.426
4 400 1.426
5 549 1.34
6 650 1.16
7 650 1.16
8 650 1.16
9 650 1.16

Angle Coeffs # harmonic

1 70 116.8
2 70 116.8
3 70 121.6
4 70 121.6
5 70 121.6
6 70 121.6
7 70 178.9
8 70 178.9
9 70 178.9
10 70 178.9

Dihedral Coeffs # opls

1 0 0 0 0
2 0 0 0 0
3 0 0 0 0
4 0 0 0 0
5 0 0 0 0
6 0 0 0 0
7 0 0 0 0
8 0 0 0 0
9 0 14 0 0
10 0 14 0 0
11 0 14 0 0
12 0 14 0 0

Atoms # full

1779 178 9 -0.358962 5.174161532523282 0.6396260354041549 2.5030668521065693 1 1 1
1299 130 9 -0.358962 5.632493078893286 7.141874529743252 2.4387722268992493 1 0 1
96 10 2 -0.091672 3.988087439905179 6.999636013053813 10.91937529085889 1 0 0
591 60 1 -0.091672 1.195931118935192 1.9444481641981284 4.994883169427515 1 1 0
592 60 3 0.404798 1.980638347549154 2.2830577348241983 3.881542517579074 1 1 0
596 60 2 -0.091672 1.3818548689254777 0.7657812996857344 5.722932799141678 1 1 0
510 51 10 -0.358962 7.321476018233421 0.8499352733266884 9.506247245214121 0 1 0
1192 120 3 0.404798 1.857781612711694 2.176299158097009 13.927541434228038 1 1 0
1776 178 2 -0.091672 3.960421947936052 1.170781654292424 0.29301682783709104 1 1 1
573 58 7 -0.358962 2.114265791508017 2.621369567713147 8.220056085717223 1 1 0
109 11 9 -0.358962 0.46696418155751224 5.228781697793672 13.018944873845157 1 0 0
1708 171 6 0.404798 8.134182813447598 0.18492203487323505 0.26662661656163644 0 1 1
1309 131 9 -0.358962 0.06007364438167351 5.777677443713682 2.5024813585912233 1 0 1
118 12 6 0.404798 1.9738233013844437 6.17942966740478 5.070490835511844 1 0 0
30 3 10 -0.358962 7.553601360054615 7.161224219618597 10.271420236207016 0 0 0
100 10 10 -0.358962 2.2084075160272105 5.1907074691151935 10.237978991212476 1 0 0
488 49 6 0.404798 7.159664796601002 0.3022761566430423 5.748437971919829 0 1 0
24 3 4 0.404798 10.082269175844765 3.1560511366545145 10.80974249159219 0 0 0
117 12 5 0.404798 0.24630613170641913 6.69792085276813 6.5807240446382105 1 0 0
97 10 5 0.404798 4.902865257909454 6.648559797235444 11.928371497478725 1 0 0
576 58 2 -0.091672 3.8823153289386805 0.9828826607958617 10.741451953643237 1 1 0
579 58 9 -0.358962 5.539427325539662 0.5546637072499225 12.706057447839521 1 1 0
593 60 7 -0.358962 2.6158615004136596 2.5412831144493846 2.9539484286387423 1 1 0
1193 120 7 -0.358962 2.478116026053231 2.3490280469141678 12.996173719552614 1 1 0
10 1 10 -0.358962 8.095416397737583 7.0428014268941554 4.6292473614345715 0 0 0
105 11 8 -0.358962 0.6814753304902234 1.8222915830614128 10.715680010031392 1 0 0
5 1 8 -0.358962 4.58596191999567 2.240586256218654 5.752841351373336 0 0 0
571 58 1 -0.091672 3.9375944911191656 2.1504956938766946 10.039042259663773 1 1 0
572 58 3 0.404798 2.880315873210692 2.4354663752600065 9.054778619831634 1 1 0
98 10 6 0.404798 3.0302538165855877 5.970123689722677 10.540035190530704 1 0 0
602 61 3 0.404798 7.041093989755485 3.645299420969454 14.638177301383031 0 0 0
574 58 4 0.404798 4.854408513700862 3.1459592319967546 10.249537608639526 1 1 0
27 3 5 0.404798 9.98933819244213 5.6089646982632315 12.273061211874287 0 0 0
120 12 10 -0.358962 2.803269225057023 5.423964743502863 4.820814172061646 1 0 0
99 10 9 -0.358962 5.708386600428178 6.325239544583467 12.71081141197644 1 0 0
9 1 9 -0.358962 5.09406639965759 6.064410320899334 7.546814185186101 0 0 0
1296 130 2 -0.091672 4.061292604762941 7.830150676851516 0.466814196991997 1 0 1
603 61 7 -0.358962 7.580373181462228 3.5998386812399237 13.566682378772736 0 0 0
1226 123 2 -0.091672 9.41707694979008 5.194721633702421 0.8511327653880285 0 0 1
1774 178 4 0.404798 4.9786660602227855 3.2931971090211207 0.09557347551381469 1 1 1
4 1 4 0.404798 5.351817457966823 3.029376411710685 5.337093284724669 0 0 0
8 1 6 0.404798 7.312451609277007 6.2171374551679515 4.958508780373201 0 0 0
1777 178 5 0.404798 4.670784665168731 0.819943180874026 1.4958170666670236 1 1 1
594 60 4 0.404798 0.2922255731400167 2.940224888793872 5.47880005230308 1 1 0
1775 178 8 -0.358962 5.76991689349167 4.104314942989651 0.4610285184937326 1 1 1
575 58 8 -0.358962 5.715814079283542 3.879062756584255 10.582132964322058 1 1 0
1297 130 5 0.404798 4.915606814204592 7.4272590182550635 1.5776590148211418 1 0 1
1 1 1 -0.091672 6.278646544293725 4.01833236553149 4.867376872197383 0 0 0
2 1 3 0.404798 7.028302880244392 3.6744638547485726 3.7846557693259544 0 0 0
6 1 2 -0.091672 6.3690339807630325 5.2723738303766465 5.439422478945603 0 0 0
26 3 2 -0.091672 9.206191717052146 5.386490170202481 11.050600796009443 0 0 0
490 49 10 -0.358962 7.839921486214606 1.2251131850723607 5.415274415311749 0 1 0
7 1 5 0.404798 5.637402925254623 5.708917750264451 6.588932023939174 0 0 0
23 3 7 -0.358962 7.948600583501682 3.8239889786921046 8.271799908967866 0 0 0
3 1 7 -0.358962 7.728608759479957 3.4582620336135896 2.8927782541036406 0 0 0
28 3 6 0.404798 8.345540080971382 6.391611010093734 10.609333993398812 0 0 0
1221 123 1 -0.091672 9.42309577096579 4.040820858510678 0.15293885298322152 0 0 1
1227 123 5 0.404798 10.060206720917268 5.300005666673412 2.09332613750335 0 0 1
22 3 3 0.404798 8.543267949211838 3.9980249084200015 9.21872311786319 0 0 0
21 3 1 -0.091672 9.295970133022045 4.2049978775792045 10.40237823496465 0 0 0
577 58 5 0.404798 4.812159215561805 0.782781102602665 11.847220851029773 1 1 0
597 60 5 0.404798 0.5678285826410566 0.4503573953069947 6.849441759456293 1 1 0
515 52 8 -0.358962 10.31980603263817 4.2591662229966145 6.211772377500936 0 1 0
116 12 2 -0.091672 1.0493419683338854 7.130443405654915 5.4899027964767 1 0 0
1305 131 8 -0.358962 0.6803629259355877 2.536907816436537 0.2700702304918468 1 0 1
508 51 6 0.404798 7.902376059991604 0.0024762386256121016 10.062769793919006 0 1 0
1224 123 4 0.404798 10.191048301207607 2.9577003276582383 0.6016690289481395 0 0 1
225 23 8 -0.358962 0.18514891272532227 7.78116929585516 10.759330701086407 1 0 0
519 52 9 -0.358962 9.961389143910964 0.5740088927515341 8.046890553174423 0 1 0
1230 123 10 -0.358962 7.710940123862665 6.988083960375252 0.11246524252698954 0 0 1
1298 130 6 0.404798 3.060115945553638 6.916248194555972 0.05877042639717611 1 0 1
1191 120 1 -0.091672 1.1111726301241829 1.846967019376051 15.102425904739917 1 1 0
1228 123 6 0.404798 8.441921687165205 6.195297142706293 0.4921427602338524 0 0 1
1778 178 6 0.404798 2.891589729613524 0.26958595038930655 0.013401055548525605 1 1 1
1110 111 10 -0.358962 7.607344890486478 0.7088364590265683 20.750938330949054 0 1 0
1115 112 8 -0.358962 9.647032528446084 3.680845132931954 16.730521255602792 0 1 0
605 61 8 -0.358962 4.404511364526639 2.431983148814795 16.70320393281878 0 0 0
608 61 6 0.404798 7.369991850000988 5.981845177057048 15.922743447870195 0 0 0
1791 180 1 -0.091672 1.1032547450647945 2.429658791030257 25.774519510282285 1 1 0
1792 180 3 0.404798 2.1280362158021537 2.8079325649080684 24.85480417622739 1 1 0
1796 180 2 -0.091672 1.1964754534329283 1.2338445966971816 26.305180991473172 1 1 0
1222 123 3 0.404798 8.728382844874444 3.8822911908654 29.81241161714046 0 0 0
624 63 4 0.404798 10.074390636349015 3.092253629373834 21.179481326670135 0 0 0
1173 118 7 -0.358962 2.015482395349716 2.6528464825767197 18.43371524803845 1 1 0
1196 120 2 -0.091672 1.1527561788041902 0.6410205369013616 15.771845387031485 1 1 0
1773 178 7 -0.358962 2.42530437810699 2.817825308882178 28.707349604747034 1 1 0
1798 180 6 0.404798 2.0017213284131943 0.18852008093642583 25.886006071602537 1 1 0
621 63 1 -0.091672 9.098316802055257 4.100940960862042 20.892441328576616 0 0 0
699 70 9 -0.358962 5.164209827464089 7.107038155432312 23.655882798859214 1 0 0
1318 132 6 0.404798 1.9870705985395003 6.371910164119183 26.41450698134962 1 0 0
1317 132 5 0.404798 0.5309780447490758 7.3485816370126065 27.95127717365566 1 0 0
1179 118 9 -0.358962 5.355548730965927 0.7912029596535699 23.06551646892891 1 1 0
700 70 10 -0.358962 2.3404557030413264 5.90761066530359 20.252310803646584 1 0 0
626 63 2 -0.091672 9.155963017318923 5.406265059545361 21.30596883064038 0 0 0
1197 120 5 0.404798 0.4468527754427283 0.3912157741204549 16.98813607637693 1 1 0
709 71 9 -0.358962 0.35549407135999944 6.202831659760567 23.916458927481735 1 0 0
628 63 6 0.404798 8.201896868617757 6.3666014188524755 20.896391191637772 0 0 0
1715 172 8 -0.358962 9.578524827560818 3.630273568952735 26.04906613755363 0 1 0
1793 180 7 -0.358962 2.829354029390474 3.0654949781897565 23.976574131855976 1 1 0
1176 118 2 -0.091672 3.6762716553938937 1.036295673217578 21.051697236448145 1 1 0
1205 121 8 -0.358962 4.856190801440377 1.923490533399506 26.658806147317488 0 0 0
1171 118 1 -0.091672 3.6194445497977705 2.237221962469191 20.420882499351332 1 1 0
1172 118 3 0.404798 2.6684047781011 2.4693373221354022 19.36523975819249 1 1 0
705 71 8 -0.358962 0.6919603349718848 2.7934207081237536 21.54756184520603 1 0 0
1772 178 3 0.404798 3.2116511691263345 2.613306353810265 29.57084447125156 1 1 0
698 70 6 0.404798 3.000055930488129 6.652777753494989 20.85367878101663 1 0 0
1174 118 4 0.404798 4.447922363272454 3.309067060669943 20.855255356086726 1 1 0
1320 132 10 -0.358962 2.724416465922963 5.458130099142976 26.15747093663267 1 0 0
609 61 9 -0.358962 5.136743318095049 5.96439396118909 18.58335269283074 0 0 0
1209 121 9 -0.358962 5.290572815661757 5.642550908497523 28.53293484669851 0 0 0
696 70 2 -0.091672 3.9405662316644126 7.565718947654118 21.409473697479275 1 0 0
639 64 9 -0.358962 9.724963011043936 7.092972057125285 18.03371744334649 0 0 0
697 70 5 0.404798 4.5713193361945486 7.260211640552982 22.658768175720663 1 0 0
718 72 6 0.404798 2.3913203022618865 6.158240308964363 16.21953858122101 1 0 0
1204 121 4 0.404798 5.459670951326748 2.755923408106682 26.155676532445064 0 0 0
1208 121 6 0.404798 7.330533483945096 6.012310118358912 25.918047215652322 0 0 0
604 61 4 0.404798 5.267918389569813 3.0344290637852236 16.225401083745915 0 0 0
717 72 5 0.404798 0.6993216415144302 7.079519242521975 17.668989400742554 1 0 0
630 63 10 -0.358962 7.446928493759235 7.1900608529306815 20.625597497955567 0 0 0
1719 172 9 -0.358962 9.570402670585057 0.19279360896098682 28.294242159078816 0 1 0
716 72 2 -0.091672 1.539472548635253 7.240099418822855 16.516896405602743 1 0 0
622 63 3 0.404798 8.11095642230027 3.752859364535208 19.88359440092025 0 0 0
1175 118 8 -0.358962 5.178772063863213 4.150879625750798 21.254051826104117 1 1 0
1210 121 10 -0.358962 7.868873701372422 6.91975503463758 25.461322386291062 0 0 0
1201 121 1 -0.091672 6.298519593357932 3.8074739943050755 25.651973688540757 0 0 0
1202 121 3 0.404798 6.914175239097878 3.596783525829099 24.41279539986626 0 0 0
1206 121 2 -0.091672 6.474746850154496 4.95824201983335 26.36329919360087 0 0 0
607 61 5 0.404798 5.657768470511174 5.551734682529558 17.626950427930844 0 0 0
623 63 7 -0.358962 7.278531923448968 3.4953005711202425 19.09082001140362 0 0 0
1207 121 5 0.404798 5.862067205207898 5.249158054885681 27.602289028307116 0 0 0
1223 123 7 -0.358962 8.07022512047388 3.6922297637011456 28.875540314784207 0 0 0
1203 121 7 -0.358962 7.476213923341733 3.454327598895623 23.413275042035696 0 0 0
1239 124 9 -0.358962 9.79888174440281 6.753207368952475 28.17250665067436 0 0 0
1690 169 10 -0.358962 8.026870082250818 0.7375184275311105 25.316761803410913 0 1 0
1177 118 5 0.404798 4.609299910207121 0.8641326950566292 22.18813730576405 1 1 0
606 61 2 -0.091672 6.382403804602753 5.093963274824551 16.467804591268678 0 0 0
627 63 5 0.404798 9.956143172052595 5.7246768441305 22.433137952190307 0 0 0
1794 180 4 0.404798 0.14853172254259092 3.4786451539372623 26.17652351021058 1 1 0
1194 120 4 0.404798 0.430278094652691 3.0048022696759045 15.66554986810818 1 1 0
1797 180 5 0.404798 0.32303406822774783 0.8608713911520768 27.38721384050762 1 1 0
1300 130 10 -0.358962 2.3217128099860083 6.167947675674559 30.564848844028024 1 0 0
1178 118 6 0.404798 2.635961127403905 0.01980852235914965 20.722676815271562 1 1 0
1090 109 10 -0.358962 7.772117132891742 0.6776416350392803 15.739788056270479 0 1 0
1771 178 1 -0.091672 4.066673205874849 2.3164379868682 30.588427300673317 1 1 0
1717 172 5 0.404798 10.357131109580644 0.38267748794101636 27.487144432670103 0 1 0
719 72 9 -0.358962 0.07719642260344128 6.782680035826841 18.576564052078496 1 0 0
1316 132 2 -0.091672 1.2432235399495881 7.49625255723269 26.746763502958565 1 0 0
610 61 10 -0.358962 8.250351008671531 6.64687893749973 15.477585423974679 0 0 0
720 72 10 -0.358962 3.012817635944952 5.248237523280571 15.859640528402611 1 0 0
601 61 1 -0.091672 6.300541427447956 3.9197852663579966 15.816919724580059 0 0 0
1714 172 4 0.404798 10.293178791032394 2.740485699575821 25.93143702755197 0 1 0
1710 171 10 -0.358962 7.4024080337734155 1.0121684845069414 30.89082256921967 0 1 0
91 10 1 -0.091672 3.86176508917367 8.22612406527196 10.38773112599204 1 0 0
1348 135 6 0.404798 8.241573888313486 13.063947186935494 0.10694509313333853 0 0 1
245 25 8 -0.358962 5.063987596092148 14.717139195309798 5.881708595130882 0 0 0
93 10 7 -0.358962 2.202720670492057 8.864732659925261 8.532589046203183 1 0 0
213 22 7 -0.358962 2.8627523153342325 15.638237227115313 8.078775745271546 1 0 0
130 13 10 -0.358962 8.211447244492964 13.506386011716954 4.99962393984934 0 0 0
141 15 1 -0.091672 9.282504998050275 10.232695893667895 10.414148433923222 0 0 0
1425 143 8 -0.358962 0.6615962404401473 8.734878767526393 0.4629328516215926 1 0 1
1347 135 5 0.404798 9.70328253011952 12.073345006195769 1.746712116012711 0 0 1
231 24 1 -0.091672 1.2784010946363356 14.881076567144639 5.050399963023528 1 0 0
236 24 2 -0.091672 1.5146504966105299 13.726653557153428 5.606882072999202 1 0 0
159 16 9 -0.358962 9.830647369655217 12.800068641589203 7.519065038691043 0 0 0
232 24 3 0.404798 1.8292434415991845 15.38336871850771 3.8012012710037535 1 0 0
1295 130 8 -0.358962 5.75936581087315 10.785651329529186 0.61474738596004 1 0 1
1344 135 4 0.404798 10.034985566570516 9.861097925827838 0.14011424851910556 0 0 1
125 13 8 -0.358962 4.699619210896234 8.77170649200214 5.801712994999486 0 0 0
832 84 3 0.404798 2.366242768090282 15.330958992850313 14.455176079149505 1 0 0
712 72 3 0.404798 2.234144511404661 8.503026653295723 14.655660223390496 1 0 0
112 12 3 0.404798 1.8336136436561181 8.58734568936032 3.7582010587053842 1 0 0
238 24 6 0.404798 2.408089994129811 12.812943281578502 4.990194483504831 1 0 0
220 22 10 -0.358962 2.2950747381610554 12.106377411979258 10.427032749348655 1 0 0
92 10 3 0.404798 2.9704806542735636 8.570129182200587 9.289310542722694 1 0 0
229 23 9 -0.358962 0.5132835572254402 11.107509574026533 12.622795280114035 1 0 0
216 22 2 -0.091672 4.050374247093896 13.935964948692598 10.788059095334733 1 0 0
217 22 5 0.404798 4.801235228459814 13.55796411704452 11.936187030642287 1 0 0
111 12 1 -0.091672 0.9644393552462199 8.303687306364537 4.926737694004536 1 0 0
146 15 2 -0.091672 9.369573523519167 11.505210829327039 10.949784298876946 0 0 0
345 35 8 -0.358962 0.19625792301209832 14.530070190347303 10.699699266278984 1 0 0
1417 142 5 0.404798 4.89975183879034 14.01689315095491 1.8100768866140569 1 0 1
723 73 7 -0.358962 7.881867943922103 10.040667249184835 13.285276005442697 0 0 0
147 15 5 0.404798 10.184429645548972 11.816688049252043 12.059113236154086 0 0 0
833 84 7 -0.358962 3.2884044166623516 15.688280925864282 13.805649258383209 1 0 0
35 4 8 -0.358962 10.126959763202366 10.282903267867894 6.1239530979056225 0 0 0
233 24 7 -0.358962 2.2357747502116077 15.787110294130276 2.765341333694749 1 0 0
264 27 4 0.404798 10.144639094422368 15.768743308529974 11.209578193029365 0 0 0
94 10 4 0.404798 4.6892917398787235 9.294775831460717 10.82228176100832 1 0 0
1416 142 2 -0.091672 4.169214159648706 14.306109660075494 0.6755622492772911 1 0 1
218 22 6 0.404798 3.0568677613377715 12.943851893907555 10.53066398670204 1 0 0
713 72 7 -0.358962 2.7335109174577092 8.59249113163763 13.628465005870181 1 0 0
240 24 10 -0.358962 3.1057715895196267 12.10213751057814 4.460489624256195 1 0 0
142 15 3 0.404798 8.46513920565965 9.895109746209117 9.269150060247117 0 0 0
129 13 9 -0.358962 5.397364593242199 12.045584115214165 8.141008560440527 0 0 0
219 22 9 -0.358962 5.345876722892156 13.367554301983922 12.909099831451504 1 0 0
1419 142 9 -0.358962 5.428812393310012 13.771314423588063 2.795659284662088 1 0 1
124 13 4 0.404798 5.428974827957376 9.558027704468198 5.47089626505774 0 0 0
128 13 6 0.404798 7.473792003493211 12.675868613986184 5.341484498092654 0 0 0
1346 135 2 -0.091672 9.073921422786109 11.990353046269169 0.5472919493509006 0 0 1
150 15 10 -0.358962 7.668934468187651 13.452672155439283 10.362683353516779 0 0 0
95 10 8 -0.358962 5.2425839340075004 10.196001383968072 11.21402638058123 1 0 0
1294 130 4 0.404798 5.127869024479166 9.952835557526997 0.16934218151369268 1 0 1
121 13 1 -0.091672 6.351490771144137 10.565501872914613 5.063663254664056 0 0 0
122 13 3 0.404798 7.044565547872434 10.335057005514312 3.8605719366190496 0 0 0
126 13 2 -0.091672 6.4785133652614375 11.68581854847266 5.7936261764813 0 0 0
211 22 1 -0.091672 4.152077109457669 15.146215462121532 10.249160306591863 1 0 0
722 73 3 0.404798 7.187093549657982 10.177199853042866 14.19832477653419 0 0 0
127 13 5 0.404798 5.88707014864325 11.831531002918016 7.089845835405849 0 0 0
143 15 7 -0.358962 7.817950040130254 9.668128786622555 8.346701741278094 0 0 0
123 13 7 -0.358962 7.592145529231834 10.095883978441714 2.891368933463786 0 0 0
148 15 6 0.404798 8.463987279368308 12.560874581096067 10.596853902385252 0 0 0
244 25 4 0.404798 5.776555127111644 15.604786342650979 5.567422149595804 0 0 0
237 24 5 0.404798 0.909598621780838 13.298486514807227 6.816255769224479 1 0 0
114 12 4 0.404798 0.0423545214314567 9.209746675473664 5.462042094344247 1 0 0
212 22 3 0.404798 3.356621281683168 15.420925046283498 9.09899414991519 1 0 0
1418 142 6 0.404798 3.302552248046595 13.272400003648851 0.11598273684364185 1 0 1
113 12 7 -0.358962 2.5251801176682784 8.801125273619823 2.8224921437215302 1 0 0
144 15 4 0.404798 10.155868127794736 9.159414466830752 10.730706268719048 0 0 0
1349 135 9 -0.358962 10.283239041055618 11.985037835468114 2.728496579503675 0 0 1
239 24 9 -0.358962 0.5270239908470289 12.988030015392834 7.838678136359502 1 0 0
1429 143 9 -0.358962 0.16249258442072761 12.207727462729599 2.323065579773245 1 0 1
721 73 1 -0.091672 6.386995586440211 10.317451981806627 15.380603126847982 0 0 0
1411 142 1 -0.091672 4.132890738525228 15.55699231760758 0.12359113964654783 1 0 1
1545 155 8 -0.358962 0.75872996241789 15.27965171512364 0.3888415218214914 1 0 1
831 84 1 -0.091672 1.3613252597417065 14.870347307408736 15.358866056104505 1 0 0
234 24 4 0.404798 0.3675097257537482 15.76890915966988 5.723625431571422 1 0 0
1464 147 4 0.404798 10.102214856756035 15.843765492599667 0.6570627070592248 0 0 1
725 73 8 -0.358962 4.922584150340255 8.380327121818357 16.265973701213746 0 0 0
1359 136 9 -0.358962 10.113436046877785 13.11477309277147 28.237016452265276 0 0 0
838 84 6 0.404798 2.2730609370191317 12.61383691346783 15.88323664583708 1 0 0
748 75 6 0.404798 8.415628396429549 12.66618001893687 21.158225629363415 0 0 0
1437 144 5 0.404798 0.7528774248413656 13.630823386470771 27.749980676522625 1 0 0
1431 144 1 -0.091672 1.2640262573558398 15.085053716006177 25.888437212048967 1 0 0
1312 132 3 0.404798 1.9332994638688707 8.81209744001662 24.79751877802199 1 0 0
1436 144 2 -0.091672 1.45089348886461 13.949659886507249 26.51436409195196 1 0 0
1311 132 1 -0.091672 1.180901623640325 8.646563610182135 25.99962443179517 1 0 0
691 70 1 -0.091672 4.139100679823492 8.755208705070583 20.84199126753912 1 0 0
1432 144 3 0.404798 2.087436532780519 15.482803347318468 24.770444992864068 1 0 0
728 73 6 0.404798 7.30586869036412 12.56033281585801 15.722369497937999 0 0 0
1444 145 4 0.404798 5.259106029836229 15.807001370632289 26.54235227072975 0 0 0
693 70 7 -0.358962 3.025315721606522 9.297833690950272 18.562115633051008 1 0 0
1323 133 7 -0.358962 7.908633110130169 9.526385206805674 23.730326340482378 0 0 0
1325 133 8 -0.358962 4.891729853088471 8.252292029791352 26.69352085886836 0 0 0
724 73 4 0.404798 5.5940795506428955 9.284179909668659 15.95066220174567 0 0 0
1327 133 5 0.404798 5.434568678125007 11.68798368039094 27.374629869715463 0 0 0
1438 144 6 0.404798 2.303167481544011 12.90797652953625 26.004348079050565 1 0 0
820 82 10 -0.358962 2.5375029688638264 11.876544467772652 20.56874560259844 1 0 0
759 76 9 -0.358962 9.810839430838268 13.530830153606459 18.411153339857204 0 0 0
837 84 5 0.404798 0.37366778425766367 13.56719066941281 16.985409210051152 1 0 0
816 82 2 -0.091672 4.0361471014895125 13.906221441514298 21.21319473906775 1 0 0
817 82 5 0.404798 4.781724262506625 13.596102152003034 22.302203686478244 1 0 0
635 64 8 -0.358962 9.546357283237086 10.615435983858518 16.004601455386236 0 0 0
1412 142 3 0.404798 3.3352441344858637 15.705943976383727 29.891841788083624 1 0 0
812 82 3 0.404798 3.1295687675420774 15.258139297455557 19.475155114972043 1 0 0
692 70 3 0.404798 3.4986702175496154 9.141245744274979 19.59414693860235 1 0 0
945 95 8 -0.358962 0.6060420940738518 14.964502312184528 21.485783847135444 1 0 0
1350 135 10 -0.358962 7.507048719112761 13.874381065676104 30.672723597641912 0 0 0
1235 124 8 -0.358962 9.996988001879743 10.154788948521723 26.331947952374534 0 0 0
742 75 3 0.404798 8.589600070319957 10.16693397417205 19.79628902974433 0 0 0
1343 135 7 -0.358962 7.676050227568974 10.344075311782301 28.647006171931803 0 0 0
811 82 1 -0.091672 4.011590512913491 15.101841773468148 20.528661845320386 1 0 0
829 83 9 -0.358962 0.48498990509868034 12.283108100595772 23.25904327298021 1 0 0
1342 135 3 0.404798 8.341639433284831 10.539020149542932 29.57674842723345 0 0 0
1292 130 3 0.404798 3.2802001760520643 9.347560508699127 29.596311916166837 1 0 0
694 70 4 0.404798 4.921943519084176 9.82426832174632 21.437218012666346 1 0 0
818 82 6 0.404798 3.1981903827186384 12.819604843171756 20.878364276118052 1 0 0
1440 144 10 -0.358962 3.0323861001003265 12.083913372149228 25.646484440495087 1 0 0
729 73 9 -0.358962 5.356195393095843 11.692133101718634 18.2831870628339 0 0 0
1329 133 9 -0.358962 4.622321812283737 11.99346156583822 28.1917411483583 0 0 0
819 82 9 -0.358962 5.483291693972544 13.384603245183309 23.19081206396528 1 0 0
1313 132 7 -0.358962 2.4914635662035205 9.013463667185665 23.7884331935849 1 0 0
1330 133 10 -0.358962 7.901277846381121 13.424468135567038 25.673485469880056 0 0 0
1324 133 4 0.404798 5.539721975256556 9.17205419405112 26.254560134165306 0 0 0
1328 133 6 0.404798 7.212329515105752 12.532899466548795 26.056945131031846 0 0 0
836 84 2 -0.091672 1.3143775466086907 13.671592887834182 15.920205909983855 1 0 0
746 75 2 -0.091672 9.465156662756856 11.702007962430732 21.519304753523734 0 0 0
750 75 10 -0.358962 7.550441192823835 13.381580021523751 20.872475353093115 0 0 0
741 75 1 -0.091672 9.44850780888642 10.498397592763332 20.895913332973763 0 0 0
695 70 8 -0.358962 5.385938920017419 10.676059338772356 22.013555154893023 1 0 0
1445 145 8 -0.358962 4.588591401224938 14.951196851094247 26.883245819587977 0 0 0
1321 133 1 -0.091672 6.311621325774857 10.19642906839461 25.710589554827685 0 0 0
1322 133 3 0.404798 7.207980358188402 9.777890987295795 24.656254360116375 0 0 0
1326 133 2 -0.091672 6.326888499868757 11.402770840595577 26.319323833085154 0 0 0
727 73 5 0.404798 5.781977100636455 11.597291431063004 17.254038711003325 0 0 0
743 75 7 -0.358962 8.010652299459284 9.933956440608826 18.73804768341761 0 0 0
714 72 4 0.404798 0.6354845002873535 9.560636029631876 16.18149942520908 1 0 0
726 73 2 -0.091672 6.494994579049308 11.46846289226735 16.057839335141242 0 0 0
1433 144 7 -0.358962 2.835410277474472 15.79434000602095 23.9060941981883 1 0 0
1439 144 9 -0.358962 0.23430076410927544 13.320450712500348 28.77266011024015 1 0 0
1293 130 7 -0.358962 2.5199861390067495 9.606872790619299 28.778664166917547 1 0 0
813 82 7 -0.358962 2.4542121883081998 15.376701112771425 18.55104612816245 1 0 0
845 85 8 -0.358962 4.902189000915564 14.736155916716283 16.774135180120883 0 0 0
730 73 10 -0.358962 8.002899621600617 13.44897181456858 15.632729587384707 0 0 0
1291 130 1 -0.091672 4.192764601971197 8.980236789132915 30.70463836085099 1 0 0
711 72 1 -0.091672 1.4530153552748166 8.371087418014472 15.834860911600208 1 0 0
825 83 8 -0.358962 0.5514921538274823 8.710005406160738 21.215821409741874 1 0 0
1420 142 10 -0.358962 2.609108067038392 12.390958796838074 30.602296653410146 1 0 0
747 75 5 0.404798 10.126801315982433 12.021541419863016 22.734472189683377 0 0 0
744 75 4 0.404798 10.162962313501394 9.414234161309901 21.512918806522904 0 0 0
844 85 4 0.404798 5.521487410889225 15.61119796881643 16.35876123390626 0 0 0
1314 132 4 0.404798 0.3746095713026914 9.698265838813773 26.39280626633679 1 0 0
840 84 10 -0.358962 3.0529676634401577 11.685669599248778 15.806438906954039 1 0 0
1341 135 1 -0.091672 9.145030749625603 10.871447533077246 30.72196394893569 0 0 0
634 64 4 0.404798 10.38633307275357 9.862596317499943 15.682074409615298 0 0 0
1534 154 4 0.404798 5.226526509044538 22.704637206051654 0.2914421216853754 1 0 1
1549 155 9 -0.358962 0.6252444822707244 18.712594930269198 2.205643655295263 1 0 1
351 36 1 -0.091672 1.1276424492334347 21.30822914516034 4.748917639088574 1 0 0
352 36 3 0.404798 2.0668904422145786 21.559036467457783 3.752274163013853 1 0 0
356 36 2 -0.091672 1.204342376953896 20.163972332358384 5.4393372702311416 1 0 0
1468 147 6 0.404798 8.55096602598202 19.234727550972604 0.2322840986050091 0 0 1
952 96 3 0.404798 1.8147378039191289 21.557255702388463 14.240050007358136 1 0 0
333 34 7 -0.358962 2.437542352740099 21.207748574389903 8.221299697248348 1 0 0
243 25 7 -0.358962 8.528074170731417 16.568039359764953 3.5777983218802643 0 0 0
1467 147 5 0.404798 10.05089844598685 18.44372832377716 1.9117690299064927 0 0 1
263 27 7 -0.358962 7.794136242906161 16.339649592971558 8.77872952263488 0 0 0
384 39 4 0.404798 10.226436806193874 21.831972168800853 10.817374796337692 0 0 0
383 39 7 -0.358962 8.048460742910564 22.025640995213518 8.09679516660065 0 0 0
358 36 6 0.404798 2.229727750506339 19.189256879309305 5.29876933683396 1 0 0
340 34 10 -0.358962 2.4593073858241543 18.0116299688751 10.398315314921879 1 0 0
336 34 2 -0.091672 3.9531624226463804 19.970846753778616 11.064334893172358 1 0 0
337 34 5 0.404798 4.54983823392794 19.795341622375982 12.34465603519912 1 0 0
353 36 7 -0.358962 2.7615068178797832 21.684946311317574 2.870543345829484 1 0 0
953 96 7 -0.358962 2.361498800461005 21.923440764232968 13.313232403723235 1 0 0
1414 142 4 0.404798 4.966599452430725 16.545008556484472 0.6171824692580288 1 0 1
1537 154 5 0.404798 4.965699311313963 20.229008977995704 1.5468552356960021 1 0 1
365 37 8 -0.358962 4.667389842411506 21.298459573637817 5.41895376083951 0 0 0
331 34 1 -0.091672 3.835986322433726 21.13420342577701 10.378814006759576 1 0 0
332 34 3 0.404798 3.151638118632268 21.191250402224874 9.105949247958211 1 0 0
843 85 7 -0.358962 7.44744145558708 16.00145174084323 13.570487348044082 0 0 0
960 96 10 -0.358962 3.146284298055811 18.13819147643605 15.449071372903152 1 0 0
334 34 4 0.404798 4.669816560292895 22.301107679446606 10.753745107576835 1 0 0
338 34 6 0.404798 3.1759078581930673 18.870835502972938 10.674544293202308 1 0 0
1536 154 2 -0.091672 4.106813178210512 20.637496223538463 0.490789202790951 1 0 1
382 39 3 0.404798 8.55232948606097 22.313570602623184 9.081032406522567 0 0 0
360 36 10 -0.358962 3.1467005104780488 18.527789509073692 5.134151243715261 1 0 0
261 27 1 -0.091672 9.397579537076558 16.785684385365066 10.701353679359698 0 0 0
249 25 9 -0.358962 4.524148881447271 18.457854835230297 7.672008889496615 0 0 0
339 34 9 -0.358962 4.916091817321821 19.675582553363785 13.4093493256606 1 0 0
1539 154 9 -0.358962 5.695691346118903 19.95292108543338 2.4097685665301896 1 0 1
248 25 6 0.404798 7.0890270599788385 19.00061380554502 5.661462008494713 0 0 0
364 37 4 0.404798 5.445909304445903 22.1434662048327 5.301608340993837 0 0 0
270 27 10 -0.358962 7.314051305721889 19.573721909177042 11.018135332192767 0 0 0
842 85 3 0.404798 7.076732085129894 16.274118502314877 14.611358918248916 0 0 0
465 47 8 -0.358962 0.5098583767286854 21.07424919537692 10.891438515326508 1 0 0
381 39 1 -0.091672 9.213094018175868 22.79097360848768 10.250663687409858 0 0 0
354 36 4 0.404798 0.34311477557972403 22.40319020895818 5.170128292392335 1 0 0
363 37 7 -0.358962 8.208395486215709 22.47850994320283 3.1795728042440343 0 0 0
241 25 1 -0.091672 6.518347120215879 16.766589943900836 5.238463813059586 0 0 0
246 25 2 -0.091672 6.322780704137564 17.913276994116636 5.894222779288182 0 0 0
362 37 3 0.404798 7.407067427111765 22.76421028786179 3.95038354535698 0 0 0
1461 147 1 -0.091672 9.340181408939184 16.907240989821684 0.07730940582417244 0 0 1
357 36 5 0.404798 0.36539979199845346 20.02104245013958 6.578782641068132 1 0 0
962 97 3 0.404798 6.895686917730315 22.686343552671325 14.329508659374957 0 0 0
1535 154 8 -0.358962 6.077108124331382 23.473742217226835 0.5575877052518472 1 0 1
215 22 8 -0.358962 5.693297017449881 17.04654154159801 11.105766522320355 1 0 0
247 25 5 0.404798 5.341402350042041 18.149150257544928 6.907956613656996 0 0 0
266 27 2 -0.091672 9.336132806660693 17.90963938987916 11.434220002285988 0 0 0
963 97 7 -0.358962 7.567837137339517 22.432206019870268 13.407625802240531 0 0 0
268 27 6 0.404798 8.273707143869633 18.883610962603104 11.146160209486963 0 0 0