LAMMPS data file via write_data, version 29 Sep 2021, timestep = 1000000

1620 atoms
10 atom types
1458 bonds
9 bond types
1620 angles
10 angle types
1944 dihedrals
12 dihedral types

0 30.025 xlo xhi
0 30.026 ylo yhi
0 30.026 zlo zhi
1.83856223955992e-15 1.83856223955992e-15 1.83856223955992e-15 xy xz yz

Masses

1 12.01
2 12.01
3 12.01
4 12.01
5 12.01
6 12.01
7 14.01
8 14.01
9 14.01
10 14.01

Pair Coeffs # lj/cut/coul/long

1 0.076 3.55
2 0.076 3.55
3 0.066 3.3
4 0.066 3.3
5 0.066 3.3
6 0.066 3.3
7 0.17 3.2
8 0.17 3.2
9 0.17 3.2
10 0.17 3.2

Bond Coeffs # harmonic

1 400 1.426
2 400 1.426
3 400 1.426
4 400 1.426
5 549 1.34
6 650 1.16
7 650 1.16
8 650 1.16
9 650 1.16

Angle Coeffs # harmonic

1 70 116.8
2 70 116.8
3 70 121.6
4 70 121.6
5 70 121.6
6 70 121.6
7 70 178.9
8 70 178.9
9 70 178.9
10 70 178.9

Dihedral Coeffs # opls

1 0 0 0 0
2 0 0 0 0
3 0 0 0 0
4 0 0 0 0
5 0 0 0 0
6 0 0 0 0
7 0 0 0 0
8 0 0 0 0
9 0 14 0 0
10 0 14 0 0
11 0 14 0 0
12 0 14 0 0

Atoms # full

1134 114 4 0.404798 14.933826746801685 3.754604571630973 1.17460607610985 0 0 1
1116 112 2 -0.091672 10.114556413177189 9.9296095035977 4.120611599576822 0 0 1
1600 160 10 -0.358962 0.2404170252521356 2.0027336356140126 2.850805614939428 1 1 1
1251 126 1 -0.091672 5.207310697207738 4.93857537449782 0.6688070764551411 1 0 1
1248 125 6 0.404798 6.309568795638701 8.482762728343479 4.7168863781456 1 0 1
1115 112 8 -0.358962 9.89818336912819 7.994778610856879 7.0585947089212615 0 0 1
1473 148 7 -0.358962 9.823433481800615 1.9931946796826145 7.191060035343257 0 1 1
1096 110 2 -0.091672 9.621756550497036 4.991725813991293 4.860991371893592 0 0 1
1478 148 6 0.404798 10.537557383894066 1.0805022620054923 3.6041149853507117 0 1 1
1480 148 10 -0.358962 10.544108289732385 2.0407440419770713 2.8690095890844685 0 1 1
1601 161 1 -0.091672 5.236746432433071 0.7106562559312573 4.802056191886921 1 1 1
1472 148 3 0.404798 10.06103126461979 1.0643660200334426 6.550507512295274 0 1 1
1252 126 3 0.404798 5.1931497911253635 6.0588899973071 1.5244777558192713 1 0 1
1484 149 4 0.404798 14.007238717590894 1.6298491250443796 5.24211283225448 0 1 1
1485 149 8 -0.358962 12.975623987993508 2.179479893624577 5.227185699546197 0 1 1
1604 161 4 0.404798 3.984367014529044 1.3804990541391755 4.943784174178203 1 1 1
1605 161 8 -0.358962 2.8595792661995914 1.7520156328712049 4.8887160077074565 1 1 1
1094 110 4 0.404798 11.665665426224983 4.73141575529321 3.770486448068779 0 0 1
1095 110 8 -0.358962 12.27312243710524 4.619433245418617 2.8027714462487703 0 0 1
1214 122 4 0.404798 1.6308968616896506 4.969641129181423 3.9905379453025183 1 0 1
1215 122 8 -0.358962 2.3231295639718943 4.981036697867825 3.071917044096348 1 0 1
1091 110 1 -0.091672 10.968532771272585 4.872742595967514 4.932372395998978 0 0 1
1092 110 3 0.404798 11.700739976109434 4.864746319963564 6.1814455781987565 0 0 1
1253 126 7 -0.358962 4.991797196972827 7.098663797211394 2.0578127472034913 1 0 1
1093 110 7 -0.358962 12.192664641822407 4.745894284174642 7.212953851663923 0 0 1
1212 122 3 0.404798 1.5792281680159537 4.737776677205796 6.427971351333117 1 0 1
1250 125 10 -0.358962 7.302596748445435 7.891963229219631 4.656900456113988 1 0 1
1117 112 5 0.404798 10.386391202363733 8.722349855716855 3.4139504382922405 0 0 1
1119 112 9 -0.358962 10.49020471198337 7.630263456448902 2.9249840448697815 0 0 1
1114 112 4 0.404798 9.918231476281955 8.92306100701443 6.406933150881635 0 0 1
1099 110 9 -0.358962 8.07710382733551 4.8736748202866975 2.8515350138609814 0 0 1
1127 113 5 0.404798 14.181701277738389 8.593546719181937 5.14528363396616 0 0 1
1129 113 9 -0.358962 13.319669793312793 7.896607027106182 5.175541085003881 0 0 1
1247 125 5 0.404798 4.0117461878481775 8.181227822376044 5.079393100174245 1 0 1
1249 125 9 -0.358962 3.075758592744078 7.491253014601162 5.156567881169566 1 0 1
1100 110 10 -0.358962 8.209093704764623 5.0701962142669466 7.027200794256304 0 0 1
1255 126 8 -0.358962 5.205502820405629 2.633843847884874 1.891542505564635 1 0 1
1203 121 7 -0.358962 7.153789661669677 9.6231380673101 2.0848005622640606 1 0 1
1097 110 5 0.404798 8.78474691564032 4.930452979239158 3.7227254173114246 0 0 1
1098 110 6 0.404798 8.80009108929167 5.10330995779852 6.023028596419767 0 0 1
1254 126 4 0.404798 5.246036382160832 3.6795949686039777 1.3527983023417898 1 0 1
1230 123 10 -0.358962 2.2183984335893463 2.8064338111009217 0.5963382151360825 1 0 1
1602 161 3 0.404798 6.418378007365848 1.478152189234482 4.612326423741309 1 1 1
1603 161 7 -0.358962 7.42716565316342 2.0841905610070213 4.599092665444958 1 1 1
1211 122 1 -0.091672 0.8342780874485659 4.847363355665161 5.1507702072157056 1 0 1
1246 125 2 -0.091672 5.07796558397777 9.076948210480168 4.922463650304112 1 0 1
1208 121 6 0.404798 3.4870467364915645 9.791109555879395 1.2814295908261129 1 0 1
1213 122 7 -0.358962 2.174227615138874 4.57987161264343 7.435295419584032 1 0 1
1228 123 6 0.404798 1.2587052372660368 3.3304096064751914 0.38931400302846964 1 0 1
1131 114 1 -0.091672 14.72540000407185 4.968178383847782 0.40217582676539343 0 0 1
1231 124 1 -0.091672 0.05205786602547679 9.866509097489388 5.614824926007127 1 0 1
1593 160 7 -0.358962 0.1439499907141425 1.921437180400591 7.053588605698769 1 1 1
1108 111 6 0.404798 11.166919099726124 3.2584352057602506 0.09036990238602804 0 0 1
1088 109 6 0.404798 13.58659979619083 9.907013610382705 1.3424610497593492 0 0 1
1132 114 3 0.404798 14.900003912931574 6.153081571401271 1.1488742453859977 0 0 1
1202 121 3 0.404798 6.450702976327794 9.825673007895 1.156453583530821 1 0 1
1090 109 10 -0.358962 13.097099286596716 9.925596017656119 2.3943205015691142 0 0 1
1239 124 9 -0.358962 0.1371086816215777 7.616783701586422 3.0645854572341604 1 0 1
1133 114 7 -0.358962 14.877119275292241 7.09294724245887 1.8420528399181277 0 0 1
1592 160 3 0.404798 0.16576742203816208 1.0060510860721503 6.347246824216902 1 1 1
1222 123 3 0.404798 1.2051300836733414 6.056084086396514 0.360223567423728 1 0 1
1237 124 5 0.404798 0.1194969459656911 8.642825214510214 3.6052338406282467 1 0 1
1210 121 10 -0.358962 2.79957217619635 9.78472129347677 2.187752459277308 1 0 1
1223 123 7 -0.358962 2.234580229257976 6.639563834079881 0.46381986801574715 1 0 1
1598 160 6 0.404798 0.32542340349837034 0.9480515179512597 3.4431075847410737 1 1 1
1206 121 2 -0.091672 4.267542624700543 9.832429299857587 0.08614925602818516 1 0 1
1201 121 1 -0.091672 5.644703685354861 9.85800277580608 0.024258977943977977 1 0 1
1110 111 10 -0.358962 12.119698854112656 2.6499910641972395 0.23197591243371352 0 0 1
1101 111 1 -0.091672 9.889052402686191 5.341340563199944 0.017357237436906783 0 0 1
1104 111 4 0.404798 8.655205361294549 6.148522745738837 0.15449764389075724 0 0 1
1105 111 8 -0.358962 7.873475274463469 6.96796662813778 0.07809167304910318 0 0 1
1135 114 8 -0.358962 15.003793110040531 2.697485033260518 1.6567382484206357 0 0 1
30 3 10 -0.358962 12.30051464323611 3.2438270738068864 10.270232363005729 0 0 0
367 37 5 0.404798 13.452045092364715 0.1766363369989312 9.061526693303957 0 1 0
481 49 1 -0.091672 5.961471605289241 0.23894679359650012 10.011355994288854 1 1 0
172 18 3 0.404798 5.134139122309038 6.496241314803976 11.615901993489006 1 0 0
150 15 10 -0.358962 1.9515816287361487 2.845623747148901 10.053917142869421 1 0 0
130 13 10 -0.358962 2.804275999757714 9.956178564351612 12.240723110390881 1 0 0
366 37 2 -0.091672 14.118178827120493 0.2602946233665834 10.319019961932606 0 1 0
177 18 5 0.404798 5.352922810957201 3.944604046257111 8.831404289675715 1 0 0
179 18 9 -0.358962 5.342359426833976 2.8820075189720753 8.356307867826708 1 0 0
25 3 8 -0.358962 7.995811898389431 7.389516492929462 9.657491292434441 0 0 0
398 40 6 0.404798 10.037532115236088 1.300861321594681 13.764205273125667 0 1 0
400 40 10 -0.358962 10.03007203425487 2.2674575670503567 13.071810622865424 0 1 0
19 2 9 -0.358962 8.158220206856184 5.517829353141859 12.975713490830358 0 0 0
17 2 5 0.404798 8.855671850052769 5.339773774622178 13.837682477820842 0 0 0
518 52 6 0.404798 0.1006738103437136 1.3939612012793483 13.286338430370938 1 1 0
178 18 6 0.404798 5.048111009560971 6.327795022983535 8.712382109113605 1 0 0
171 18 1 -0.091672 5.1570645074332955 5.271608964574574 10.913663620764755 1 0 0
176 18 2 -0.091672 5.199521682259138 5.178887284726426 9.56001569964749 1 0 0
21 3 1 -0.091672 10.10542789307729 5.876100056126041 9.788702490835863 0 0 0
22 3 3 0.404798 11.416860736150287 6.44852133379632 9.648097823646753 0 0 0
26 3 2 -0.091672 10.061732605363204 4.567008103720466 10.013254450203503 0 0 0
28 3 6 0.404798 11.259785571770184 3.7840053375181992 10.156681145522949 0 0 0
173 18 7 -0.358962 5.224340814241319 7.454914170794251 12.239188864461934 1 0 0
142 15 3 0.404798 1.1448202020193246 6.352330137520107 10.136207084745068 1 0 0
174 18 4 0.404798 5.3602353714389 4.124887033949857 11.747066810239625 1 0 0
148 15 6 0.404798 0.9550442718424563 3.448190370583901 10.06692379330736 1 0 0
14 2 4 0.404798 11.647195862804455 5.356318420650859 13.896891724206094 0 0 0
15 2 8 -0.358962 12.274256480538511 5.386916046281818 12.929972956634378 0 0 0
134 14 4 0.404798 1.1784296679210486 5.091484893396545 13.97014667117618 1 0 0
135 14 8 -0.358962 1.8955589985059949 5.261323402606654 13.072455703062133 1 0 0
175 18 8 -0.358962 5.524419576979003 3.1784952096253827 12.364640750455555 1 0 0
27 3 5 0.404798 8.826636908168341 3.8240037009884116 10.131526115129681 0 0 0
23 3 7 -0.358962 12.460827259897084 6.9749477672015825 9.535715318698573 0 0 0
143 15 7 -0.358962 2.229074268508746 6.89867964713059 10.149888594762517 1 0 0
37 4 5 0.404798 10.053250678134082 9.097990394479012 13.410732361428481 0 0 0
39 4 9 -0.358962 10.23084076371915 8.25513638922895 12.592109317344798 0 0 0
490 49 10 -0.358962 3.379277274832936 0.4247596849412318 12.220417004474935 1 1 0
24 3 4 0.404798 8.926321060317996 6.692976414553442 9.631280019768548 0 0 0
29 3 9 -0.358962 7.845790911701339 3.2133292260058437 10.251298315702075 0 0 0
180 18 10 -0.358962 4.929878556484321 7.248659165419836 8.026173041394092 1 0 0
396 40 2 -0.091672 10.03865775439307 0.13126417445888386 14.562631865205507 0 1 0
482 49 3 0.404798 6.640142056342389 0.3511253176631757 11.299700907393367 1 1 0
167 17 5 0.404798 3.809317142156524 8.701925074654886 14.663176648946425 1 0 0
169 17 9 -0.358962 2.894588984679702 7.9652305024626076 14.588564965521496 1 0 0
520 52 10 -0.358962 0.0795716767927493 2.480191118060972 12.829227092409823 1 1 0
488 49 6 0.404798 3.9485695795068074 0.26657613808850134 11.181021293039514 1 1 0
486 49 2 -0.091672 4.641773690419981 0.18611718142775338 9.942672641553646 1 1 0
369 37 9 -0.358962 12.989817921590143 0.04617217125396978 7.979807998873644 0 1 0
55 6 8 -0.358962 14.9900448230458 3.110105154163515 12.472098426189193 0 0 0
168 17 6 0.404798 6.2245767711800974 8.858068783748681 14.83339244853189 1 0 0
525 53 8 -0.358962 2.8730936284986726 2.2105184668832005 14.960093971863445 1 1 0
368 37 6 0.404798 13.334249210988697 0.49574226249999215 11.54807901059054 0 1 0
166 17 2 -0.091672 4.966757553367214 9.577301755092945 14.776874802882583 1 0 0
484 49 4 0.404798 6.760597729956645 0.003817506885058871 8.843676909613885 1 1 0
483 49 7 -0.358962 7.3086875110899925 0.3037185925273708 12.248504128238052 1 1 0
370 37 10 -0.358962 12.622606663775418 0.6681894540730587 12.416416451485379 0 1 0
570 57 10 -0.358962 12.347169922959361 3.0778326710965853 20.614877069197036 0 0 0
154 16 4 0.404798 0.07558043412629523 8.896039979619054 16.40927065137052 1 0 0
155 16 8 -0.358962 0.19427727026855057 7.941346238267883 17.106792889938106 1 0 0
16 2 2 -0.091672 9.59898022460431 5.196755702096549 15.061608643843087 0 0 0
690 69 10 -0.358962 2.5216300506755953 2.7711666567438846 19.88303167753204 1 0 0
686 69 2 -0.091672 0.24879906587129816 3.9693491071576883 20.29627209583209 1 0 0
719 72 9 -0.358962 5.243751820904002 2.8456298614638427 18.051465290346684 1 0 0
907 91 5 0.404798 13.525745998526647 0.14015706850101642 18.84058920935222 0 1 0
711 72 1 -0.091672 5.421707870817821 4.9732372162541845 20.84285262086406 1 0 0
392 40 3 0.404798 10.276184920287603 1.2584052208701189 16.785637263393674 0 1 0
393 40 7 -0.358962 10.435600479548631 2.1483594844864395 17.482622266844952 0 1 0
11 2 1 -0.091672 10.88282546002033 5.267878573521642 15.071334120921541 0 0 0
714 72 4 0.404798 5.142663101179161 3.8039933048813634 21.632950492619884 1 0 0
565 57 8 -0.358962 8.26783823907916 7.334176368735361 19.84372990370067 0 0 0
718 72 6 0.404798 5.472506809502315 6.202674892037149 18.752822140321072 1 0 0
717 72 5 0.404798 5.367787072282127 3.837134608601288 18.665470465606372 1 0 0
716 72 2 -0.091672 5.4803301108817415 4.984891688656527 19.48211433133932 1 0 0
561 57 1 -0.091672 10.239068452610757 5.702396101953066 20.08441546666892 0 0 0
562 57 3 0.404798 11.43860445679849 6.467799946956757 20.156246464257144 0 0 0
566 57 2 -0.091672 10.220254583932496 4.327035916201915 20.100760766261423 0 0 0
568 57 6 0.404798 11.427172348943035 3.6577567705821767 20.39299754461002 0 0 0
720 72 10 -0.358962 5.380768200675756 7.220617260051686 18.15535314857007 1 0 0
682 69 3 0.404798 1.45660238141339 6.011789134183849 20.299256668491086 1 0 0
564 57 4 0.404798 9.111688261819976 6.560206192830494 19.987599349487592 0 0 0
688 69 6 0.404798 1.4726701486571152 3.352791358133833 20.104908807731288 1 0 0
12 2 3 0.404798 11.526338632247718 5.162353105007668 16.36255575323328 0 0 0
13 2 7 -0.358962 12.043456494937894 5.079432388909648 17.430803428755546 0 0 0
132 14 3 0.404798 1.1833970171747763 5.085969394371642 16.379147018162623 1 0 0
133 14 7 -0.358962 1.8071351946764833 5.113477461959348 17.342066148987776 1 0 0
563 57 7 -0.358962 12.488874354211838 6.977372797608992 20.125298819240683 0 0 0
683 69 7 -0.358962 2.5246497759226174 6.498104897215591 20.32073662506184 1 0 0
34 4 4 0.404798 10.04869014056051 8.890539808608837 16.340210546686908 0 0 0
35 4 8 -0.358962 10.167188392769665 8.000082048331072 17.067462617252257 0 0 0
20 2 10 -0.358962 8.230287083627346 4.521392937900548 17.149668744772253 0 0 0
712 72 3 0.404798 5.41415705535634 6.13168159229996 21.52278824923937 1 0 0
569 57 9 -0.358962 8.020338802976665 3.044079527759804 20.13659616961676 0 0 0
18 2 6 0.404798 8.86116300016983 4.867623721599972 16.24190205544092 0 0 0
567 57 5 0.404798 9.029767683162431 3.672963125562803 20.198252379918255 0 0 0
715 72 8 -0.358962 5.023284310088282 2.7855882420845823 22.21598531000673 1 0 0
511 52 1 -0.091672 0.0067979385103766115 0.1537777325353155 15.36713550183902 1 1 0
521 53 1 -0.091672 4.96856697247028 0.694459710229882 15.081209733543025 1 1 0
598 60 6 0.404798 14.866122304942541 6.269172937128091 18.828540786491306 0 0 0
713 72 7 -0.358962 5.386458774933238 7.178784530358263 21.981981113840114 1 0 0
391 40 1 -0.091672 10.13310970963862 0.08453382934952383 15.933021859761661 0 1 0
600 60 10 -0.358962 14.694286507877568 7.166479352370229 18.118062422587553 0 0 0
681 69 1 -0.091672 0.24880397409508617 5.345720003679465 20.362796244431024 1 0 0
405 41 8 -0.358962 12.932520099968453 2.078980433177599 15.126313656651256 0 1 0
522 53 3 0.404798 6.182002396574733 1.4438875323905422 15.17005779557344 1 1 0
547 55 5 0.404798 13.696272011741117 9.799184231741233 18.947486074113925 0 0 0
513 52 7 -0.358962 0.16516931277178218 2.311471454120155 16.770496622752823 1 1 0
523 53 7 -0.358962 7.14563768468044 2.052280278028115 15.332564352123011 1 1 0
549 55 9 -0.358962 12.937959327132225 9.763242551260463 18.0542088513631 0 0 0
591 60 1 -0.091672 14.987800877010148 5.160712725905518 20.996612822236045 0 0 0
404 41 4 0.404798 13.904918959566878 1.5319285359322876 15.21612978742386 0 1 0
131 14 1 -0.091672 0.42601269928825264 5.091595876668707 15.127752879539843 1 0 0
596 60 2 -0.091672 14.906706918551977 5.1318830138431935 19.63130815530103 0 0 0
597 60 5 0.404798 14.845406617280041 3.912450700080449 18.934924100318714 0 0 0
909 91 9 -0.358962 12.861784134737839 0.08594646153207589 17.90956097830666 0 1 0
599 60 9 -0.358962 14.738227302324647 2.9254632084226957 18.408062582185124 0 0 0
548 55 6 0.404798 13.741076078675066 9.94961645435614 21.332308170357972 0 0 0
550 55 10 -0.358962 13.079446594077941 9.927447143941079 22.290207336792644 0 0 0
546 55 2 -0.091672 14.477383628371767 9.892084247554846 20.12427277246745 0 0 0
1029 103 9 -0.358962 2.9665091647880693 0.025494337332774984 17.714021375942963 1 1 0
170 17 10 -0.358962 7.274920528466686 8.306206435924503 15.018253802488905 1 0 0
1024 103 4 0.404798 6.5795814142444335 0.05891629402028479 18.736759097555577 1 1 0
1021 103 1 -0.091672 5.762456118989954 0.007772364542309183 19.988574164141028 1 1 0
1025 103 8 -0.358962 7.210545794137513 5.3508149700288044e-05 17.740807536006255 1 1 0
49 5 9 -0.358962 12.953670376956307 7.904204286814303 15.283448028434549 0 0 0
46 5 2 -0.091672 14.96928133869471 9.368972010936229 15.044300848554467 0 0 0
47 5 5 0.404798 13.879677449262676 8.539592193472405 15.19347442196757 0 0 0
524 53 4 0.404798 3.7675916546325663 1.5310932814657097 15.01876106180048 1 1 0
1259 126 9 -0.358962 4.561030761541859 3.0261619239331132 27.99634449713114 1 0 0
1061 107 1 -0.091672 5.023404340145503 0.7555430974523636 25.053398498091237 1 1 0
1564 157 4 0.404798 6.221658442297605 0.21553705480608365 28.58310467594593 1 1 0
557 56 5 0.404798 8.666245579161094 4.96709116140535 23.72593191457458 0 0 0
938 94 6 0.404798 9.99301317602896 1.1898163209163535 23.3227361541334 0 1 0
671 68 1 -0.091672 0.5989334896716187 5.111887614339933 25.26709124230598 1 0 0
1567 157 5 0.404798 3.4326790874943796 0.0823998951050853 28.6845415735337 1 1 0
932 94 3 0.404798 9.858317959944882 1.081699978187812 26.193622303176753 0 1 0
933 94 7 -0.358962 9.854308739863251 2.0048764127783483 26.881796658044316 0 1 0
944 95 4 0.404798 13.592145478659265 0.8777459076167832 24.993547102778535 0 1 0
945 95 8 -0.358962 12.635371995304586 1.5117303747228927 25.08090541767467 0 1 0
1064 107 4 0.404798 3.740991594676899 1.3218621216410473 24.7726594526734 1 1 0
1065 107 8 -0.358962 2.6674600631927654 1.6786818295558315 24.401666425134238 1 1 0
708 71 6 0.404798 6.167562918294522 8.79015934701479 25.195295928448722 1 0 0
1257 126 5 0.404798 4.773745456718412 3.951064683449847 28.665755340047387 1 0 0
556 56 2 -0.091672 9.438647217825284 5.0710253118496365 24.921268428750174 0 0 0
710 71 10 -0.358962 7.178352218133693 8.101995993478262 25.163367757868734 1 0 0
706 71 2 -0.091672 4.987588212115702 9.524046245569902 25.138340727137063 1 0 0
1256 126 2 -0.091672 5.006346073909659 5.1249586300404895 29.398813989648723 1 0 0
675 68 8 -0.358962 1.9124533868266542 4.470192656380844 23.112076756659555 1 0 0
560 56 10 -0.358962 7.982243612279267 5.251396817685071 27.07898138034235 0 0 0
1260 126 10 -0.358962 4.902524564335712 7.336641602880575 28.0830176700598 1 0 0
1565 157 8 -0.358962 6.844538763988938 0.3532158903946023 27.634357254226973 1 1 0
558 56 6 0.404798 8.62761431549922 5.1088564311296425 26.11501063054492 0 0 0
1063 107 7 -0.358962 6.8345448043926345 2.5734326216889154 25.087300498629183 1 1 0
554 56 4 0.404798 11.620127469149296 5.088029470810796 23.844054354775338 0 0 0
1137 114 5 0.404798 14.871544771854124 3.6244452419367144 28.352215339171277 0 0 0
674 68 4 0.404798 1.3554549569067662 4.757575993093937 24.074562758820285 1 0 0
1062 107 3 0.404798 6.134665709332294 1.6485547677222085 25.102339511976705 1 1 0
551 56 1 -0.091672 10.791335498970687 4.97281887033875 24.988358828074116 0 0 0
552 56 3 0.404798 11.377866830450687 4.858133161332617 26.26978973488705 0 0 0
553 56 7 -0.358962 11.832185852233192 4.691248133681898 27.35254076494213 0 0 0
940 94 10 -0.358962 10.004425476684016 2.2333622158397284 22.875601797751237 0 1 0
672 68 3 0.404798 1.340368724945773 5.074318393157581 26.41208036936654 1 0 0
673 68 7 -0.358962 1.9112350726258833 5.0505928297850975 27.48597876169048 1 0 0
941 95 1 -0.091672 14.807141785445525 0.20834368703439266 24.976734669498487 0 1 0
1258 126 6 0.404798 4.9585330711682465 6.328838892632195 28.68507693089511 1 0 0
577 58 5 0.404798 10.035122115491658 8.920038776793595 23.33774486912842 0 0 0
1204 121 4 0.404798 6.279973254214977 9.965445210735064 28.81073857348956 1 0 0
574 58 4 0.404798 10.032343842392292 8.876540742563726 26.23909144501733 0 0 0
575 58 8 -0.358962 10.054273151945992 7.826671624453219 26.757624463604408 0 0 0
587 59 5 0.404798 13.844493517056474 8.58205355068507 25.051414483778355 0 0 0
589 59 9 -0.358962 12.859813715254596 7.950394291427905 24.90696165341491 0 0 0
707 71 5 0.404798 3.8400681535533785 8.78875363086194 25.303875854132187 1 0 0
709 71 9 -0.358962 2.897727282317016 8.082816733794516 25.353759053704582 1 0 0
555 56 8 -0.358962 12.376783883416964 4.936350415577737 22.93616534796379 0 0 0
1087 109 5 0.404798 13.344035612803923 9.934183608508278 29.043877193544176 0 0 0
694 70 4 0.404798 0.1282769446002699 8.832386071547615 26.5300005200427 1 0 0
1209 121 9 -0.358962 2.7877897740136457 9.816618562861484 27.999257557569408 1 0 0
559 56 9 -0.358962 7.96448969092174 4.904961699976603 22.795248754951977 0 0 0
699 70 9 -0.358962 0.28251458139001806 7.9557012421408455 22.90964050606692 1 0 0
579 58 9 -0.358962 10.138572298382762 8.027714719997821 22.625920235961665 0 0 0
1109 111 9 -0.358962 7.627604524754437 2.7856816909095947 29.888264695071875 0 0 0
1569 157 9 -0.358962 2.850027807763449 0.2101503717246394 27.68947313273245 1 1 0
1139 114 9 -0.358962 14.941341911231518 2.6089765152877695 27.86628120593382 0 0 0
1089 109 9 -0.358962 12.738172605090845 9.877369290158631 28.06204530883163 0 0 0
1138 114 6 0.404798 14.792261492914733 6.062771312248468 28.274025236396607 0 0 0
1207 121 5 0.404798 3.461007680712897 9.828118275554997 28.957650681287635 1 0 0
1106 111 2 -0.091672 9.92599240085083 4.0029919831503795 29.995004302782636 0 0 0
695 70 8 -0.358962 0.23877493493284932 7.951718812324643 27.30360481454409 1 0 0
697 70 5 0.404798 0.07138237774907602 8.906822053088451 23.556991316381104 1 0 0
1107 111 5 0.404798 8.671364429111067 3.274633136225218 29.99830635947422 0 0 0
1136 114 2 -0.091672 14.829050418178396 4.864669833178345 29.09814784799618 0 0 0
1140 114 10 -0.358962 14.850992371416785 7.089580110047075 27.665291844205328 0 0 0
1102 111 3 0.404798 11.080177616364564 6.05320819824985 29.969590283153277 0 0 0
1103 111 7 -0.358962 11.977831641135012 6.732177933002112 29.83004837712727 0 0 0
1417 142 5 0.404798 0.1153700492997213 18.873079675203982 3.621684007367594 1 0 1
1290 129 10 -0.358962 12.082798606661592 13.011308124261062 0.165801471591386 0 0 1
1241 125 1 -0.091672 4.9972788201567715 10.456022496793564 4.895043090419219 1 0 1
1393 140 7 -0.358962 2.0710846909891445 14.94384117812958 6.9591056744092255 1 0 1
1278 128 6 0.404798 8.403399775358606 15.055857306667752 6.250994813292065 0 0 1
1233 124 7 -0.358962 0.23137110222730223 12.070648690527577 6.903015782494456 1 0 1
1118 112 6 0.404798 9.86021898328235 11.047138971422628 3.2488982043076056 0 0 1
1120 112 10 -0.358962 9.768890833824779 11.866342068350452 2.4295429648029865 0 0 1
1433 144 7 -0.358962 4.511561693575777 17.042954524896967 2.2847603223116484 1 0 1
1112 112 3 0.404798 9.532417420512775 11.263541987759568 6.162362433238144 0 0 1
1426 143 2 -0.091672 4.965184737946885 19.70834810829671 5.156083577565004 1 0 1
1124 113 4 0.404798 13.870753226820774 11.42419684935222 4.8231488858295695 0 0 1
1125 113 8 -0.358962 12.816936658895019 11.930958255994682 4.81326800482263 0 0 1
1244 125 4 0.404798 3.770183498870792 11.180500775315377 4.973099174097632 1 0 1
1245 125 8 -0.358962 2.817153426582645 11.804620506764323 5.156119442139983 1 0 1
1274 128 4 0.404798 11.174588207579216 14.594816520718181 3.834217651913129 0 0 1
1275 128 8 -0.358962 11.786907322522161 14.436530241713028 2.8728272439770244 0 0 1
1394 140 4 0.404798 1.4233059418306486 14.982232085295502 3.6343627475986593 1 0 1
1395 140 8 -0.358962 2.102756386805215 15.049376625373249 2.67288724594466 1 0 1
1271 128 1 -0.091672 10.414640531756257 14.75623614475037 5.084282953000368 0 0 1
1272 128 3 0.404798 11.264681045003066 14.82644807374722 6.225001970491169 0 0 1
1279 128 9 -0.358962 7.675776123074738 14.881071553565615 2.9489901230868303 0 0 1
1431 144 1 -0.091672 4.84724449134316 14.992244005192198 0.6903409244963387 1 0 1
1392 140 3 0.404798 1.413349142816245 14.893925755954882 6.05145395720629 1 0 1
1277 128 5 0.404798 8.31635081815667 14.89313752892581 3.8732393176317275 0 0 1
1297 130 5 0.404798 10.04618407069285 18.968355845597138 3.570920215155802 0 0 1
1299 130 9 -0.358962 10.031873422860052 18.059410382279665 2.850800281247349 0 0 1
1294 130 4 0.404798 10.129307412701198 18.54393626317669 6.391940345557402 0 0 1
1283 129 7 -0.358962 12.038597274139775 16.952672411176394 0.41877828226044905 0 0 1
1307 131 5 0.404798 14.052501732041597 18.52125382673234 4.980658277290709 0 0 1
1309 131 9 -0.358962 13.124422278685865 17.881549077738164 4.842840764971031 0 0 1
1427 143 5 0.404798 3.8446452605129995 18.921506037861615 5.126694375696959 1 0 1
1429 143 9 -0.358962 2.9405967494462564 18.194630256401307 5.188196827030701 1 0 1
1288 129 6 0.404798 11.099892479546535 13.5713650947306 0.06286700643623556 0 0 1
1113 112 7 -0.358962 9.338310964007121 12.285771944736911 6.681199933355355 0 0 1
1086 109 2 -0.091672 14.22788957643486 10.042634253431029 0.11070393485798924 0 0 1
1430 143 10 -0.358962 7.132567799597039 18.319224169779503 4.884873097245649 1 0 1
1435 144 8 -0.358962 4.5104072983076176 12.871493671886064 1.952546602343448 1 0 1
1428 143 6 0.404798 6.165256421510394 18.957453643302458 4.948708050626754 1 0 1
1276 128 2 -0.091672 9.126357089598317 14.913264095430755 5.043912132986159 0 0 1
1242 125 3 0.404798 6.184394932836067 11.22940906585414 4.800760176921387 1 0 1
1243 125 7 -0.358962 7.14129606585395 11.827916882279359 4.5600306772229535 1 0 1
1391 140 1 -0.091672 0.6382323542052367 14.964788147192165 4.865035872826088 1 0 1
1432 144 3 0.404798 4.647363294723099 16.144156426554062 1.5958164052770625 1 0 1
1434 144 4 0.404798 4.677325061490597 13.776606158105624 1.327953478959237 1 0 1
1111 112 1 -0.091672 9.802230518890147 10.03127605698189 5.472714694908402 0 0 1
1280 128 10 -0.358962 7.821921752791244 15.22111991103996 7.251257871246032 0 0 1
1295 130 8 -0.358962 10.163282688223104 17.532920871061805 7.015255084191165 0 0 1
1273 128 7 -0.358962 11.906763404526918 14.904025759675708 7.153349197551815 0 0 1
1284 129 4 0.404798 8.618174800633241 16.278678518452057 0.012395759930654884 0 0 1
1291 130 1 -0.091672 10.058605802762875 19.85257546211393 5.809557135077118 0 0 1
1266 127 2 -0.091672 14.226809933951223 19.814632791953304 0.3335395078326693 0 0 1
1403 141 7 -0.358962 2.2063689572708123 17.327401673523234 0.05420059942124113 1 0 1
1268 127 6 0.404798 13.472209974996781 19.95150049977872 1.520551892401481 0 0 1
1402 141 3 0.404798 1.244457951609773 16.665376387039625 0.06220120697152945 1 0 1
1419 142 9 -0.358962 0.139340556390663 17.907987121145823 2.9484530876529105 1 0 1
1232 124 3 0.404798 0.20897725458601826 11.073119032082671 6.345928024459067 1 0 1
1282 129 3 0.404798 11.05940359468478 16.343538927349368 0.3780806415173062 0 0 1
1281 129 1 -0.091672 9.862918797775308 15.593801859690057 0.22942989296479094 0 0 1
1382 139 3 0.404798 6.611150402820232 19.87725025804745 1.3350329205310447 1 0 1
1381 139 1 -0.091672 5.867323490915902 19.80563800692256 0.14421901773875767 1 0 1
1286 129 2 -0.091672 9.886225750573011 14.256938068849458 0.01192931351715557 0 0 1
237 24 5 0.404798 14.569841613975626 13.897806509408753 8.46449756298681 0 0 0
359 36 9 -0.358962 4.853691260097914 12.912535665018408 8.091520485306587 1 0 0
129 13 9 -0.358962 2.7894781103761614 10.034419244746227 7.928692200020115 1 0 0
210 21 10 -0.358962 11.964677007511199 12.94059175434525 10.001791718091539 0 0 0
190 19 10 -0.358962 12.977378542824306 19.557915407683875 12.269844618692893 0 0 0
161 17 1 -0.091672 4.907274894410957 10.870045938835355 14.840550674922444 1 0 0
191 20 1 -0.091672 10.228193795567297 15.186792596636813 14.757060773177994 0 0 0
330 33 10 -0.358962 2.063630556346448 13.034450825959631 9.885998690715235 1 0 0
38 4 6 0.404798 9.781661740199912 11.416781044214655 13.60037956972871 0 0 0
40 4 10 -0.358962 9.667087700053834 12.415240117002275 12.947237231236466 0 0 0
358 36 6 0.404798 4.810661592772449 16.399392245683188 8.570860923792448 1 0 0
239 24 9 -0.358962 14.454352343123313 12.92149136056931 7.761067741536282 0 0 0
204 21 4 0.404798 8.58261405431863 16.443010581149736 10.016944331709663 0 0 0
355 36 8 -0.358962 4.9355481212763355 13.11041059746703 12.162162465154799 1 0 0
356 36 2 -0.091672 4.912252684817333 15.240141670600076 9.363935251650792 1 0 0
121 13 1 -0.091672 5.598414272311591 10.138972789117915 9.985747992351987 1 0 0
201 21 1 -0.091672 9.791591982020517 15.710891102759946 10.057947242972261 0 0 0
202 21 3 0.404798 11.018367387930086 16.40257756716694 9.843269262156339 0 0 0
206 21 2 -0.091672 9.786870243454443 14.357069228665944 9.98021465472934 0 0 0
208 21 6 0.404798 10.994954649035236 13.60769984918846 9.913635002557022 0 0 0
207 21 5 0.404798 8.618986787804253 13.646309932191919 10.051952420990773 0 0 0
322 33 3 0.404798 1.064110376447069 16.49202785606965 10.007483785756579 1 0 0
353 36 7 -0.358962 4.704350352455122 17.37239157199867 12.094707870353858 1 0 0
328 33 6 0.404798 1.0325527106972627 13.600853009157037 9.871756449610293 1 0 0
194 20 4 0.404798 10.986151874187332 15.09808748063206 13.540730120866861 0 0 0
195 20 8 -0.358962 11.582410556642598 15.107035143183465 12.5733803166439 0 0 0
314 32 4 0.404798 1.2938830164333892 15.140205288588925 13.508628515937353 1 0 0
315 32 8 -0.358962 1.7681251735886918 14.941526749019525 12.48031022985926 1 0 0
354 36 4 0.404798 4.903820684951619 14.026014371110566 11.495241365086642 1 0 0
199 20 9 -0.358962 7.30829401673204 15.277735934050924 12.852930881128653 0 0 0
203 21 7 -0.358962 12.012389781233464 16.991138440047735 9.613598321844162 0 0 0