LAMMPS data file
# Generated by Playmol on 25-Nov-2024 at 13:50:01

3 atom types
3 bond types
3 angle types
3 dihedral types

60 atoms
54 bonds
60 angles
72 dihedrals

-4.86800003 4.86800003 xlo xhi
-4.86800003 4.86800003 ylo yhi
-4.86800003 4.86800003 zlo zhi
0.00000000 0.00000000 0.00000000 xy xz yz

Masses

1 12.01 # CZ
2 12.01 # CM
3 14.01 # NZ

# Elements: C? C? N?

Pair Coeffs # lj/cut/coul/long

1 0.0660 3.30000 # CZ
2 0.0760 3.55000 # CM
3 0.1700 3.20000 # NZ

Bond Coeffs # harmonic

1 650.0 1.160 # CZ NZ
2 400.0 1.426 # CZ CM
3 549.0 1.340 # CM CM

Angle Coeffs # harmonic

1 70.0 178.9 # CM CZ NZ
2 70.0 116.8 # CZ CM CZ
3 70.0 121.6 # CM CM CZ

Dihedral Coeffs # opls

1 0.0 0.0 0.0 0.0 # CZ CM CZ NZ
2 0.0 0.0 0.0 0.0 # CM CM CZ NZ
3 0.0 14.0 0.0 0.0 # CZ CM CM CZ

Atoms

1 1 2 -0.091672 10.4130411 4.86800003 4.86800003 # C1
2 1 1 0.404798 11.1679707 4.86800003 6.07799006 # C2
3 1 3 -0.358962 11.8089886 4.86800003 7.02695799 # N1
4 1 1 0.404798 11.1679707 4.86800003 3.65801001 # C3
5 1 3 -0.358962 11.8089886 4.86800003 2.70904207 # N2
6 1 2 -0.091672 9.05895901 4.86800003 4.86800003 # C1B
7 1 1 0.404798 8.30402946 4.86800003 3.65801001 # C2B
8 1 1 0.404798 8.30402946 4.86800003 6.07799006 # C3B
9 1 3 -0.358962 7.66301107 4.86800003 2.70904207 # N1B
10 1 3 -0.358962 7.66301107 4.86800003 7.02695799 # N2B
11 2 2 -0.091672 5.54504108 0.00000000 9.73600006 # C1
12 2 1 0.404798 6.29997110 0.00000000 10.9459896 # C2
13 2 3 -0.358962 6.94098902 0.00000000 11.8949575 # N1
14 2 1 0.404798 6.29997110 0.00000000 8.52600956 # C3
15 2 3 -0.358962 6.94098902 0.00000000 7.57704210 # N2
16 2 2 -0.091672 4.19095898 0.00000000 9.73600006 # C1B
17 2 1 0.404798 3.43602896 0.00000000 8.52600956 # C2B
18 2 1 0.404798 3.43602896 0.00000000 10.9459896 # C3B
19 2 3 -0.358962 2.79501104 0.00000000 7.57704210 # N1B
20 2 3 -0.358962 2.79501104 0.00000000 11.8949575 # N2B
21 3 2 -0.091672 4.86800003 0.677040994 4.86800003 # C1
22 3 1 0.404798 6.07799006 1.43197095 4.86800003 # C2
23 3 3 -0.358962 7.02695799 2.07298899 4.86800003 # N1
24 3 1 0.404798 3.65801001 1.43197095 4.86800003 # C3
25 3 3 -0.358962 2.70904207 2.07298899 4.86800003 # N2
26 3 2 -0.091672 4.86800003 -0.677040994 4.86800003 # C1B
27 3 1 0.404798 3.65801001 -1.43197095 4.86800003 # C2B
28 3 1 0.404798 6.07799006 -1.43197095 4.86800003 # C3B
29 3 3 -0.358962 2.70904207 -2.07298899 4.86800003 # N1B
30 3 3 -0.358962 7.02695799 -2.07298899 4.86800003 # N2B
31 4 2 -0.091672 4.86800003 4.86800003 10.4130001 # C1
32 4 1 0.404798 4.86800003 6.07800007 11.1680002 # C2
33 4 3 -0.358962 4.86800003 7.02699995 11.8090000 # N1
34 4 1 0.404798 4.86800003 3.65799999 11.1680002 # C3
35 4 3 -0.358962 4.86800003 2.70900011 11.8090000 # N2
36 4 2 -0.091672 4.86800003 4.86800003 9.05900002 # C1B
37 4 1 0.404798 4.86800003 3.65799999 8.30399990 # C2B
38 4 1 0.404798 4.86800003 6.07800007 8.30399990 # C3B
39 4 3 -0.358962 4.86800003 2.70900011 7.66300011 # N1B
40 4 3 -0.358962 4.86800003 7.02699995 7.66300011 # N2B
41 5 2 -0.091672 9.73600006 5.54504108 9.73600006 # C1
42 5 1 0.404798 10.9459896 6.29997110 9.73600006 # C2
43 5 3 -0.358962 11.8949575 6.94098902 9.73600006 # N1
44 5 1 0.404798 8.52600956 6.29997110 9.73600006 # C3
45 5 3 -0.358962 7.57704210 6.94098902 9.73600006 # N2
46 5 2 -0.091672 9.73600006 4.19095898 9.73600006 # C1B
47 5 1 0.404798 8.52600956 3.43602896 9.73600006 # C2B
48 5 1 0.404798 10.9459896 3.43602896 9.73600006 # C3B
49 5 3 -0.358962 7.57704210 2.79501104 9.73600006 # N1B
50 5 3 -0.358962 11.8949575 2.79501104 9.73600006 # N2B
51 6 2 -0.091672 9.73600006 0.00000000 5.54504108 # C1
52 6 1 0.404798 9.73600006 1.20999002 6.29997110 # C2
53 6 3 -0.358962 9.73600006 2.15895796 6.94098902 # N1
54 6 1 0.404798 9.73600006 -1.20999002 6.29997110 # C3
55 6 3 -0.358962 9.73600006 -2.15895796 6.94098902 # N2
56 6 2 -0.091672 9.73600006 0.00000000 4.19095898 # C1B
57 6 1 0.404798 9.73600006 -1.20999002 3.43602896 # C2B
58 6 1 0.404798 9.73600006 1.20999002 3.43602896 # C3B
59 6 3 -0.358962 9.73600006 -2.15895796 2.79501104 # N1B
60 6 3 -0.358962 9.73600006 2.15895796 2.79501104 # N2B

Bonds

1 2 1 2 # C1 C2
2 2 1 4 # C1 C3
3 3 1 6 # C1 C1B
4 1 2 3 # C2 N1
5 1 4 5 # C3 N2
6 2 6 7 # C1B C2B
7 2 6 8 # C1B C3B
8 1 7 9 # C2B N1B
9 1 8 10 # C3B N2B
10 2 11 12 # C1 C2
11 2 11 14 # C1 C3
12 3 11 16 # C1 C1B
13 1 12 13 # C2 N1
14 1 14 15 # C3 N2
15 2 16 17 # C1B C2B
16 2 16 18 # C1B C3B
17 1 17 19 # C2B N1B
18 1 18 20 # C3B N2B
19 2 21 22 # C1 C2
20 2 21 24 # C1 C3
21 3 21 26 # C1 C1B
22 1 22 23 # C2 N1
23 1 24 25 # C3 N2
24 2 26 27 # C1B C2B
25 2 26 28 # C1B C3B
26 1 27 29 # C2B N1B
27 1 28 30 # C3B N2B
28 2 31 32 # C1 C2
29 2 31 34 # C1 C3
30 3 31 36 # C1 C1B
31 1 32 33 # C2 N1
32 1 34 35 # C3 N2
33 2 36 37 # C1B C2B
34 2 36 38 # C1B C3B
35 1 37 39 # C2B N1B
36 1 38 40 # C3B N2B
37 2 41 42 # C1 C2
38 2 41 44 # C1 C3
39 3 41 46 # C1 C1B
40 1 42 43 # C2 N1
41 1 44 45 # C3 N2
42 2 46 47 # C1B C2B
43 2 46 48 # C1B C3B
44 1 47 49 # C2B N1B
45 1 48 50 # C3B N2B
46 2 51 52 # C1 C2
47 2 51 54 # C1 C3
48 3 51 56 # C1 C1B
49 1 52 53 # C2 N1
50 1 54 55 # C3 N2
51 2 56 57 # C1B C2B
52 2 56 58 # C1B C3B
53 1 57 59 # C2B N1B
54 1 58 60 # C3B N2B

Angles

1 2 2 1 4 # C2 C1 C3
2 3 2 1 6 # C2 C1 C1B
3 3 4 1 6 # C3 C1 C1B
4 1 1 2 3 # C1 C2 N1
5 1 1 4 5 # C1 C3 N2
6 3 1 6 7 # C1 C1B C2B
7 3 1 6 8 # C1 C1B C3B
8 2 7 6 8 # C2B C1B C3B
9 1 6 7 9 # C1B C2B N1B
10 1 6 8 10 # C1B C3B N2B
11 2 12 11 14 # C2 C1 C3
12 3 12 11 16 # C2 C1 C1B
13 3 14 11 16 # C3 C1 C1B
14 1 11 12 13 # C1 C2 N1
15 1 11 14 15 # C1 C3 N2
16 3 11 16 17 # C1 C1B C2B
17 3 11 16 18 # C1 C1B C3B
18 2 17 16 18 # C2B C1B C3B
19 1 16 17 19 # C1B C2B N1B
20 1 16 18 20 # C1B C3B N2B
21 2 22 21 24 # C2 C1 C3
22 3 22 21 26 # C2 C1 C1B
23 3 24 21 26 # C3 C1 C1B
24 1 21 22 23 # C1 C2 N1
25 1 21 24 25 # C1 C3 N2
26 3 21 26 27 # C1 C1B C2B
27 3 21 26 28 # C1 C1B C3B
28 2 27 26 28 # C2B C1B C3B
29 1 26 27 29 # C1B C2B N1B
30 1 26 28 30 # C1B C3B N2B
31 2 32 31 34 # C2 C1 C3
32 3 32 31 36 # C2 C1 C1B
33 3 34 31 36 # C3 C1 C1B
34 1 31 32 33 # C1 C2 N1
35 1 31 34 35 # C1 C3 N2
36 3 31 36 37 # C1 C1B C2B
37 3 31 36 38 # C1 C1B C3B
38 2 37 36 38 # C2B C1B C3B
39 1 36 37 39 # C1B C2B N1B
40 1 36 38 40 # C1B C3B N2B
41 2 42 41 44 # C2 C1 C3
42 3 42 41 46 # C2 C1 C1B
43 3 44 41 46 # C3 C1 C1B
44 1 41 42 43 # C1 C2 N1
45 1 41 44 45 # C1 C3 N2
46 3 41 46 47 # C1 C1B C2B
47 3 41 46 48 # C1 C1B C3B
48 2 47 46 48 # C2B C1B C3B
49 1 46 47 49 # C1B C2B N1B
50 1 46 48 50 # C1B C3B N2B
51 2 52 51 54 # C2 C1 C3
52 3 52 51 56 # C2 C1 C1B
53 3 54 51 56 # C3 C1 C1B
54 1 51 52 53 # C1 C2 N1
55 1 51 54 55 # C1 C3 N2
56 3 51 56 57 # C1 C1B C2B
57 3 51 56 58 # C1 C1B C3B
58 2 57 56 58 # C2B C1B C3B
59 1 56 57 59 # C1B C2B N1B
60 1 56 58 60 # C1B C3B N2B

Dihedrals

1 1 4 1 2 3 # C3 C1 C2 N1
2 2 6 1 2 3 # C1B C1 C2 N1
3 1 2 1 4 5 # C2 C1 C3 N2
4 2 6 1 4 5 # C1B C1 C3 N2
5 3 2 1 6 7 # C2 C1 C1B C2B
6 3 4 1 6 7 # C3 C1 C1B C2B
7 3 2 1 6 8 # C2 C1 C1B C3B
8 3 4 1 6 8 # C3 C1 C1B C3B
9 2 1 6 7 9 # C1 C1B C2B N1B
10 1 8 6 7 9 # C3B C1B C2B N1B
11 2 1 6 8 10 # C1 C1B C3B N2B
12 1 7 6 8 10 # C2B C1B C3B N2B
13 1 14 11 12 13 # C3 C1 C2 N1
14 2 16 11 12 13 # C1B C1 C2 N1
15 1 12 11 14 15 # C2 C1 C3 N2
16 2 16 11 14 15 # C1B C1 C3 N2
17 3 12 11 16 17 # C2 C1 C1B C2B
18 3 14 11 16 17 # C3 C1 C1B C2B
19 3 12 11 16 18 # C2 C1 C1B C3B
20 3 14 11 16 18 # C3 C1 C1B C3B
21 2 11 16 17 19 # C1 C1B C2B N1B
22 1 18 16 17 19 # C3B C1B C2B N1B
23 2 11 16 18 20 # C1 C1B C3B N2B
24 1 17 16 18 20 # C2B C1B C3B N2B
25 1 24 21 22 23 # C3 C1 C2 N1
26 2 26 21 22 23 # C1B C1 C2 N1
27 1 22 21 24 25 # C2 C1 C3 N2
28 2 26 21 24 25 # C1B C1 C3 N2
29 3 22 21 26 27 # C2 C1 C1B C2B
30 3 24 21 26 27 # C3 C1 C1B C2B
31 3 22 21 26 28 # C2 C1 C1B C3B
32 3 24 21 26 28 # C3 C1 C1B C3B
33 2 21 26 27 29 # C1 C1B C2B N1B
34 1 28 26 27 29 # C3B C1B C2B N1B
35 2 21 26 28 30 # C1 C1B C3B N2B
36 1 27 26 28 30 # C2B C1B C3B N2B
37 1 34 31 32 33 # C3 C1 C2 N1
38 2 36 31 32 33 # C1B C1 C2 N1
39 1 32 31 34 35 # C2 C1 C3 N2
40 2 36 31 34 35 # C1B C1 C3 N2
41 3 32 31 36 37 # C2 C1 C1B C2B
42 3 34 31 36 37 # C3 C1 C1B C2B
43 3 32 31 36 38 # C2 C1 C1B C3B
44 3 34 31 36 38 # C3 C1 C1B C3B
45 2 31 36 37 39 # C1 C1B C2B N1B
46 1 38 36 37 39 # C3B C1B C2B N1B
47 2 31 36 38 40 # C1 C1B C3B N2B
48 1 37 36 38 40 # C2B C1B C3B N2B
49 1 44 41 42 43 # C3 C1 C2 N1
50 2 46 41 42 43 # C1B C1 C2 N1
51 1 42 41 44 45 # C2 C1 C3 N2
52 2 46 41 44 45 # C1B C1 C3 N2
53 3 42 41 46 47 # C2 C1 C1B C2B
54 3 44 41 46 47 # C3 C1 C1B C2B
55 3 42 41 46 48 # C2 C1 C1B C3B
56 3 44 41 46 48 # C3 C1 C1B C3B
57 2 41 46 47 49 # C1 C1B C2B N1B
58 1 48 46 47 49 # C3B C1B C2B N1B
59 2 41 46 48 50 # C1 C1B C3B N2B
60 1 47 46 48 50 # C2B C1B C3B N2B
61 1 54 51 52 53 # C3 C1 C2 N1
62 2 56 51 52 53 # C1B C1 C2 N1
63 1 52 51 54 55 # C2 C1 C3 N2
64 2 56 51 54 55 # C1B C1 C3 N2
65 3 52 51 56 57 # C2 C1 C1B C2B
66 3 54 51 56 57 # C3 C1 C1B C2B
67 3 52 51 56 58 # C2 C1 C1B C3B
68 3 54 51 56 58 # C3 C1 C1B C3B
69 2 51 56 57 59 # C1 C1B C2B N1B
70 1 58 56 57 59 # C3B C1B C2B N1B
71 2 51 56 58 60 # C1 C1B C3B N2B
72 1 57 56 58 60 # C2B C1B C3B N2B
