LAMMPS data file via write_data, version 29 Sep 2021, timestep = 5000000

1620 atoms
10 atom types
1458 bonds
9 bond types
1620 angles
10 angle types
1944 dihedrals
12 dihedral types

0 31.303 xlo xhi
0 31.303 ylo yhi
0 31.303 zlo zhi

Masses

1 12.01
2 12.01
3 12.01
4 12.01
5 12.01
6 12.01
7 14.01
8 14.01
9 14.01
10 14.01

Bond Coeffs # harmonic

1 400 1.426
2 400 1.426
3 400 1.426
4 400 1.426
5 549 1.34
6 650 1.16
7 650 1.16
8 650 1.16
9 650 1.16

Angle Coeffs # harmonic

1 70 116.8
2 70 116.8
3 70 121.6
4 70 121.6
5 70 121.6
6 70 121.6
7 70 178.9
8 70 178.9
9 70 178.9
10 70 178.9

Dihedral Coeffs # opls

1 0 0 0 0
2 0 0 0 0
3 0 0 0 0
4 0 0 0 0
5 0 0 0 0
6 0 0 0 0
7 0 0 0 0
8 0 0 0 0
9 0 14 0 0
10 0 14 0 0
11 0 14 0 0
12 0 14 0 0

Atoms # full

544 55 4 0.404798 3.1920302644046625 4.195346404676731 5.388337189761383 -4 -3 0
541 55 1 -0.091672 3.5014973436704633 5.5054129189576395 4.8944767009657255 -4 -3 0
542 55 3 0.404798 4.843767259744673 5.729196289370766 4.564057648488208 -4 -3 0
1032 104 3 0.404798 7.376420686224827 2.5930455953969127 3.374477846770488 2 0 -5
1033 104 7 -0.358962 6.616796024484889 2.520280902698676 2.5008213451152344 2 0 -5
545 55 8 -0.358962 3.0364160679141547 3.1172376509869886 5.787167669396696 -4 -3 0
549 55 9 -0.358962 0.0907580672001562 6.258994733409419 5.1525661871593496 -4 -3 0
546 55 2 -0.091672 2.602918439599443 6.494897199218963 4.799204286065495 -4 -3 0
1034 104 4 0.404798 7.5122716834679055 2.9289056703139975 5.831179667510858 2 0 -5
743 75 7 -0.358962 4.784736072174237 0.6785545138785427 4.487702093174444 -1 1 -2
543 55 7 -0.358962 5.977567268568308 5.8680083000423435 4.361996265983771 -4 -3 0
859 86 9 -0.358962 3.2157937146846254 9.765163515542422 6.71080968721579 0 -1 0
548 55 6 0.404798 3.048602137258649 7.7741004383800245 4.332655224840534 -4 -3 0
1470 147 10 -0.358962 3.332346575255222 0.4046105699368807 6.996344588545458 1 1 2
547 55 5 0.404798 1.242556151185321 6.363014190790151 5.062337894972994 -4 -3 0
1350 135 10 -0.358962 9.989192735243895 10.347352330565704 1.9288040817819867 -1 0 1
145 15 8 -0.358962 2.386327889071814 3.203099134059926 2.47013834187699 -1 -2 -2
1248 125 6 0.404798 3.890090855387709 8.669580643332049 0.1526013172269117 0 4 0
144 15 4 0.404798 2.3980565845132316 2.539639576231341 1.5186742740534502 -1 -2 -2
1031 104 1 -0.091672 8.161515768405765 2.8805098205315276 4.556626740307597 2 0 -5
1035 104 8 -0.358962 6.969853479567977 3.0813327092971363 6.8451562458044 2 0 -5
1343 135 7 -0.358962 6.597728184384606 9.205200199270301 3.9587883577894365 -1 0 1
550 55 10 -0.358962 3.3639280019430977 8.753372065757985 3.7967478693672767 -4 -3 0
1185 119 8 -0.358962 5.3383030050948586 7.6358964681293635 6.548646803660786 2 0 -1
185 19 8 -0.358962 12.84521492360771 1.7274664619275493 5.233821011118147 -2 0 3
1342 135 3 0.404798 7.157578818795926 10.218711824441618 4.0292259711975795 -1 0 1
1037 104 5 0.404798 10.230449428543695 3.5078900884035833 5.555687842686283 2 0 -5
499 50 9 -0.358962 15.562240461639654 7.402349636768102 0.43388961545211746 -1 -2 -1
36 4 2 -0.091672 11.881232160363181 6.209531729448682 2.0323853773642777 2 1 1
943 95 7 -0.358962 14.607699243371714 4.897464127947583 6.092350005861609 -2 -2 -2
184 19 4 0.404798 13.580124113967207 1.196950572668623 4.509900155888503 -2 0 3
181 19 1 -0.091672 14.461256292646654 0.4344775386632745 3.7491803559437833 -2 0 3
32 4 3 0.404798 10.08123313472865 7.4041369618709725 2.8653445682709795 2 1 1
1245 125 8 -0.358962 7.0647820187095265 5.543765246592486 1.5672330359165718 0 4 0
917 92 5 0.404798 8.820436622239932 8.934116528453268 7.247181234714858 -2 4 1
37 4 5 0.404798 12.499359566739088 5.555087169588243 0.9577871409198995 2 1 1
919 92 9 -0.358962 8.60033454736824 7.796830413376595 7.18606335787265 -2 4 1
1435 144 8 -0.358962 14.984658968686308 7.543567839405222 7.0050763166167 1 3 0
141 15 1 -0.091672 2.461339298506962 1.713999485492478 0.355853868070997 -1 -2 -2
942 95 3 0.404798 15.350405610364826 4.759676301711153 6.972691854616461 -2 -2 -2
143 15 7 -0.358962 0.45140129126987033 0.07225715556232652 0.11058036158809201 -1 -2 -2
1038 104 6 0.404798 10.165508143433662 2.958887858099645 3.1948209137771104 2 0 -5
40 4 10 -0.358962 13.063879907896748 5.9910876597234495 4.2922990830422405 2 1 1
1241 125 1 -0.091672 4.879992465085942 6.784061269212848 1.0181517382967429 0 4 0
1036 104 2 -0.091672 9.485301644997733 3.0625447280997236 4.456355743080919 2 0 -5
38 4 6 0.404798 12.51050952191666 6.043165231116955 3.274129561764398 2 1 1
31 4 1 -0.091672 10.744627676807372 6.886642131811186 1.819660782158443 2 1 1
33 4 7 -0.358962 9.560408208554419 7.736549060501109 3.847099933634373 2 1 1
1039 104 9 -0.358962 10.941840725300917 3.8760857987632904 6.39470771320182 2 0 -5
1040 104 10 -0.358962 10.735960571306705 2.8366586543434757 2.1922023167805493 2 0 -5
34 4 4 0.404798 10.161168288860386 6.736051145226834 0.5733068517789176 2 1 1
1184 119 4 0.404798 5.721101236093035 7.636896845406775 7.643664848424104 2 0 -1
1242 125 3 0.404798 3.5658872631489706 6.2016630011968195 1.1189946857414346 0 4 0
1243 125 7 -0.358962 2.4878350060128236 5.773412491861301 1.1211935010266776 0 4 0
1244 125 4 0.404798 6.055504315639296 6.078532559522541 1.3647918222099302 0 4 0
914 92 4 0.404798 11.043892394658986 9.791846895828781 5.724635041942762 -2 4 1
915 92 8 -0.358962 11.709588248378244 9.079568887793819 5.0960580065949515 -2 4 1
1434 144 4 0.404798 15.293150733268496 8.598156212679031 7.376931395146805 1 3 0
142 15 3 0.404798 1.33478528604999 0.8235627768144204 0.13837579826369903 -1 -2 -2
1249 125 9 -0.358962 7.3839247663122585 9.078257323826346 0.5956029643996876 0 4 0
916 92 2 -0.091672 9.17370689198746 10.271414109811651 7.212035604317874 -2 4 1
910 91 10 -0.358962 15.256482039108924 9.494464251915847 4.329999590880817 0 1 -2
1247 125 5 0.404798 6.319633420822817 8.617009024814777 0.5840288788438843 0 4 0
1246 125 2 -0.091672 5.031013468644829 8.064478971642995 0.6530172888683258 0 4 0
39 4 9 -0.358962 13.067152204488089 5.060424352747095 0.07544920463665505 2 1 1
1461 147 1 -0.091672 3.3333109442885145 3.1677990907037143 9.099921992716887 1 1 2
834 84 4 0.404798 0.6322810315093573 7.321384877308515 10.97359001612776 4 0 -4
1181 119 1 -0.091672 6.210507717526737 7.801495987883811 8.964571399431184 2 0 -1
1464 147 4 0.404798 3.646355438333418 4.121889745833122 10.091492349957882 1 1 2
1462 147 3 0.404798 2.04617058613699 3.374767493265216 8.472124784613293 1 1 2
1315 132 8 -0.358962 1.8760019986867438 5.239149606843134 13.802901253772342 0 0 -2
1439 144 9 -0.358962 12.428224690472243 10.149778121432334 8.45368431188687 1 3 0
1480 148 10 -0.358962 5.487565583298209 7.492455003094859 12.871385422729032 1 3 -2
1478 148 6 0.404798 5.638702710680842 6.392053457127562 13.205861189124862 1 3 -2
308 31 6 0.404798 14.186513104300865 9.163294771997284 13.56175120401423 -1 4 1
1465 147 8 -0.358962 3.9669021009982717 4.93019035467601 10.859281385973285 1 1 2
1466 147 2 -0.091672 4.057296527116977 2.09259271547954 8.760251312648393 1 1 2
301 31 1 -0.091672 14.648450374420362 6.826122552453135 13.554200366815433 -1 4 1
835 84 8 -0.358962 0.8361401470235934 7.1622488316334145 12.104393792452226 4 0 -4
1182 119 3 0.404798 5.713714708267853 8.933057063616799 9.690585577248427 2 0 -1
832 84 3 0.404798 1.1526541150735223 6.703207466589864 8.635545067326255 4 0 -4
1476 148 2 -0.091672 5.905416644792621 5.116587185770362 13.79382452285771 1 3 -2
1467 147 5 0.404798 5.367320827858801 1.8947902235967766 9.225668403280354 1 1 2
1183 119 7 -0.358962 5.224949146553843 9.902225933439894 10.099755404048992 2 0 -1
1463 147 7 -0.358962 0.9616142210067216 3.5136279329831024 8.084755088604712 1 1 2
1471 148 1 -0.091672 6.915952996543211 4.872929605987107 14.639429198373879 1 3 -2
1472 148 3 0.404798 7.804078706387674 5.940923683753227 14.907020489416023 1 3 -2
98 10 6 0.404798 9.568593237013218 3.817303325135222 11.07472651752471 -1 2 2
302 31 3 0.404798 13.803247487170417 6.518227327423431 14.651174561184396 -1 4 1
1469 147 9 -0.358962 6.387246773129592 1.6192866150414236 9.704676601923532 1 1 2
1477 148 5 0.404798 4.9075315721068 4.205025932961804 13.59685096569326 1 3 -2
1479 148 9 -0.358962 4.126867757147098 3.381488537028214 13.356122527238243 1 3 -2
95 10 8 -0.358962 12.270980974602889 0.9276668301320333 8.376005751291318 -1 2 2
1187 119 5 0.404798 7.856735455931662 6.044296819533685 8.62932475736172 2 0 -1
1190 119 10 -0.358962 8.041226824472032 7.373438198446216 11.819481266987026 2 0 -1
43 5 7 -0.358962 6.96572956518019 10.390677018054273 12.058581676316752 0 2 3
666 67 2 -0.091672 12.674364343957786 0.4729504029300842 14.708599240050674 1 0 -2
664 67 4 0.404798 10.913168551151402 2.0668809000033534 14.94258263751978 1 0 -2
662 67 3 0.404798 12.793033408726386 2.584717853379966 13.473870074770064 1 0 -2
1473 148 7 -0.358962 8.337540240388103 6.937500625065459 15.167506969282352 1 3 -2
1474 148 4 0.404798 7.080102224331553 3.6446271831634003 15.387720017386151 1 3 -2
91 10 1 -0.091672 11.275968341025397 2.9445130257491017 9.604757744876771 -1 2 2
665 67 8 -0.358962 9.900082732117244 2.483182963155031 15.324616361375407 1 0 -2
1024 103 4 0.404798 1.534656474440666 1.2823664291141381 11.835746735573311 -3 -1 1
1188 119 6 0.404798 7.629981398979234 7.209727728095286 10.747251763848551 2 0 -1
94 10 4 0.404798 11.886114544738822 1.8994434873184882 8.879124032949807 -1 2 2
1186 119 2 -0.091672 7.207621469577216 7.031355858084721 9.420913782248943 2 0 -1
1189 119 9 -0.358962 8.264962342065147 5.218414763601624 7.9244349448315665 2 0 -1
100 10 10 -0.358962 9.205496301545429 4.822150578406471 11.526437281850301 -1 2 2
304 31 4 0.404798 15.396084229479996 5.781914744754377 12.977487736936128 -1 4 1
306 31 2 -0.091672 14.844401895886277 8.056772935327434 13.06155176470302 -1 4 1
99 10 9 -0.358962 9.153899129033215 0.31766224826811085 10.413561700738617 -1 2 2
92 10 3 0.404798 11.7888861356644 4.229071466345656 9.444943285051767 -1 2 2
96 10 2 -0.091672 10.149685661318593 2.7204903965347755 10.295338077966713 -1 2 2
303 31 7 -0.358962 13.174465026123508 6.295938363412414 15.600290063562793 -1 4 1
93 10 7 -0.358962 12.20214215654082 5.300509387481834 9.281113363053043 -1 2 2
310 31 10 -0.358962 13.721358636559776 10.120286048682285 14.023702519571513 -1 4 1
661 67 1 -0.091672 12.121831011448226 1.6417076309292016 14.356018070076091 1 0 -2
97 10 5 0.404798 9.55259571390084 1.405265803508841 10.352246357407326 -1 2 2
663 67 7 -0.358962 13.363900296748493 3.3091571805140636 12.77037972830138 1 0 -2
1314 132 4 0.404798 2.31875006344963 5.1055271978613215 14.866724176327772 0 0 -2
583 59 7 -0.358962 10.929061645576219 8.166156216022147 14.988318286979112 0 0 -1
831 84 1 -0.091672 0.3568481277224428 7.421126814837962 9.54007400242931 4 0 -4
70 7 10 -0.358962 3.6493089312282354 9.177917114640167 14.883697490105934 -1 1 3
1021 103 1 -0.091672 0.7788278943678056 0.6149577586515788 10.841550476010324 -3 -1 1
1025 103 8 -0.358962 2.174454797110371 1.8072826956172041 12.648594213474707 -3 -1 1
668 67 6 0.404798 13.98341580060353 0.217948906350518 14.213685808543927 1 0 -2
670 67 10 -0.358962 15.015994200169246 0.08882582482731749 13.701134245073973 1 0 -2
590 59 10 -0.358962 7.40922714895965 9.52241111139954 15.517841408168513 0 0 -1
833 84 7 -0.358962 1.8002657940830527 6.06185002133898 7.918007789093967 4 0 -4
1468 147 6 0.404798 3.568901431323885 1.1246096381375377 7.874549091372133 1 1 2
950 95 10 -0.358962 15.147111356932095 1.4944627794327485 7.827225675733586 -2 -2 -2
1318 132 6 0.404798 2.8203851811561216 3.808606964882481 18.280141830660895 0 0 -2
360 36 10 -0.358962 5.378858294313449 0.7200046660389419 19.67600316592487 1 1 -2
359 36 9 -0.358962 2.3970521977621115 0.9229455773123478 22.71850906400295 1 1 -2
1485 149 8 -0.358962 1.3097213521570938 4.164577256671513 22.67156601116532 1 3 2
1312 132 3 0.404798 3.9463804233171826 5.630393907868824 16.589469994917042 0 0 -2
67 7 5 0.404798 5.271282613858926 9.070507508580992 17.93739348935361 -1 1 3
1320 132 10 -0.358962 3.4941887964925007 3.5590641520618655 19.190810312907242 0 0 -2
352 36 3 0.404798 7.21325364599866 0.07476540955414215 22.687587916299332 1 1 -2
1483 149 7 -0.358962 0.854669624067191 1.3842105126441213 19.230528427812573 1 3 2
586 59 2 -0.091672 9.001994165850165 9.344662085123975 17.55276108435312 0 0 -1
1475 148 8 -0.358962 7.237925811521572 2.641978843702063 15.949314205421866 1 3 -2
69 7 9 -0.358962 5.798299902147336 8.22716723267244 18.534578517895383 -1 1 3
1484 149 4 0.404798 0.635790117516934 3.570362501299608 21.937859304110237 1 3 2
246 25 2 -0.091672 3.7181134093294106 9.389480238744579 22.618791641002442 4 0 1
1590 159 10 -0.358962 1.834657030257987 9.720625024447402 20.06967683628464 1 3 1
1482 149 3 0.404798 0.48695072661845523 2.1040362848319494 20.06253424247706 1 3 2
248 25 6 0.404798 2.2427251855611807 9.555924199351525 22.674631480352772 4 0 1
1145 115 8 -0.358962 7.369945524715241 6.311137476543399 20.356661562632983 -2 0 -5
250 25 10 -0.358962 1.1088841856385792 9.751559705540863 22.8220470550249 4 0 1
283 29 7 -0.358962 9.23649234806328 0.8236789770580495 18.277011718400797 -2 -3 -3
983 99 7 -0.358962 15.261094446790064 1.0915723010376468 22.161085697170268 -1 -2 -2
1319 132 9 -0.358962 0.17614655819031808 2.565695759461019 16.42503651998228 0 0 -2
247 25 5 0.404798 4.323668279918262 9.767709002860299 21.405797704762733 4 0 1
1313 132 7 -0.358962 4.89640189519078 6.129932256880216 17.029379826441915 0 0 -2
1316 132 2 -0.091672 2.151072694972107 4.076975971416015 17.040528787172416 0 0 -2
356 36 2 -0.091672 4.880970804127146 0.5232993148129346 22.21705551389017 1 1 -2
1317 132 5 0.404798 1.0049566515914956 3.2908362121013215 16.78951582488986 0 0 -2
282 29 3 0.404798 10.127338084509942 0.23868471963999752 18.73502439389534 -2 -3 -3
358 36 6 0.404798 5.13836423770464 0.5543384648668392 20.79864172316823 1 1 -2
1311 132 1 -0.091672 2.7667094218669894 4.93445563801592 16.215107622229333 0 0 -2
351 36 1 -0.091672 5.876308992275199 0.35110408094182277 23.09753874354214 1 1 -2
588 59 6 0.404798 8.04374122740999 9.470110482156237 16.487509682977656 0 0 -1
587 59 5 0.404798 8.601796013964956 9.638039761205539 19.01330184195927 0 0 -1
357 36 5 0.404798 3.5392367454366136 0.7952955502019298 22.561283304452523 1 1 -2
249 25 9 -0.358962 4.968432273340671 10.153635998745663 20.522089749404174 4 0 1
68 7 6 0.404798 4.243183760347388 9.507832004151174 15.82394685362184 -1 1 3
1619 162 9 -0.358962 15.38097635494417 3.60616153666346 18.786631166042156 -4 -1 -2
228 23 6 0.404798 14.896636399264422 9.837410306984903 18.926877237592734 0 4 -2
1162 117 3 0.404798 10.417307111819454 9.825404758215251 23.39344378375163 -1 2 -2
584 59 4 0.404798 11.21001037577035 8.474161309311109 18.3994267962734 0 0 -1
582 59 3 0.404798 10.627189339156036 8.492784058347118 16.059666673036073 0 0 -1
678 68 6 0.404798 6.761263440429856 3.5315979562271482 22.95977879947036 1 -1 -3
1588 159 6 0.404798 0.7035267105249596 9.97730282867053 20.085823842494396 1 3 1
581 59 1 -0.091672 10.243305901368302 8.856775959821368 17.423484928421114 0 0 -1
1149 115 9 -0.358962 10.515234754409006 4.405795183811496 18.021305436780608 -2 0 -5
230 23 10 -0.358962 14.938269273663558 8.781226612671517 18.449025039218437 0 4 -2
1148 115 6 0.404798 11.966682087492899 4.978586450087275 21.001091027361085 -2 0 -5
1150 115 10 -0.358962 12.961582804249296 4.739021003901495 21.547333616510105 -2 0 -5
1142 115 3 0.404798 10.094053919851957 6.369129486163991 22.438192783714623 -2 0 -5
589 59 9 -0.358962 8.465978518351733 9.78996674606007 20.15526147383181 0 0 -1
1144 115 4 0.404798 8.440701833025093 6.015735278161353 20.691054312781848 -2 0 -5
1143 115 7 -0.358962 10.345830321524641 6.896796668785006 23.44007900293661 -2 0 -5
673 68 7 -0.358962 10.058127291117831 2.427308943563962 22.059695379390092 1 -1 -3
680 68 10 -0.358962 5.912045837223908 3.2685266002998334 22.214645976224233 1 -1 -3
1147 115 5 0.404798 10.583081370407443 4.6420681592308535 19.154959673764132 -2 0 -5
1146 115 2 -0.091672 10.728022823383322 5.175338436565595 20.424071021161627 -2 0 -5
285 29 8 -0.358962 13.641385136546972 0.15537404403522048 19.30297623406498 -2 -3 -3
585 59 8 -0.358962 12.016324785002718 8.195458263664381 19.185417698530042 0 0 -1
1141 115 1 -0.091672 9.780219401861064 5.7405861881407425 21.184178700277712 -2 0 -5
1163 117 7 -0.358962 9.915118320281293 9.47881143440747 22.406894499617472 -1 2 -2
672 68 3 0.404798 9.563474952503139 2.9351470504289714 22.977856326039007 1 -1 -3
66 7 2 -0.091672 4.738053032056301 10.011470250242288 17.027843711433707 -1 1 3
245 25 8 -0.358962 6.939820414139241 8.365867911584385 23.469876339576967 4 0 1
1336 134 2 -0.091672 3.144657981747123 4.006858707774931 25.833108109009434 1 -1 2
1338 134 6 0.404798 3.5330701427519697 4.849052217820962 24.81530096650151 1 -1 2
1331 134 1 -0.091672 1.8598255177297442 3.7729543247514084 26.133265231179927 1 -1 2
1057 106 5 0.404798 7.8120819956564285 8.159156114483112 28.478662154330582 -2 2 0
1608 161 6 0.404798 13.861008134536549 1.5867307073791932 30.922912543275526 0 -1 2
1332 134 3 0.404798 0.7095375326761328 4.447091634787674 25.59151452794626 1 -1 2
1334 134 4 0.404798 1.4216505026157003 2.8206997115452226 27.073222115792376 1 -1 2
1337 134 5 0.404798 4.076318683376676 3.2015899454560017 26.420511187912684 1 -1 2
1339 134 9 -0.358962 4.78824889575333 2.4744393260933353 26.97729423532854 1 -1 2
146 15 2 -0.091672 3.5035225020784986 1.7356146781118427 30.816840231023093 -1 -2 -3
676 68 2 -0.091672 7.628994283891054 3.959508295765394 24.011451680044825 1 -1 -3
1220 122 10 -0.358962 2.1599868178295063 8.094919672977463 28.813616240796733 2 0 1
1052 106 3 0.404798 4.662550257320654 6.060155793009801 28.545819911911323 -2 2 0
671 68 1 -0.091672 8.933999232943084 3.6556557811874737 24.02680532030007 1 -1 -3
1054 106 4 0.404798 5.1001640509312915 8.404098737428825 28.53560795878623 -2 2 0
1250 125 10 -0.358962 2.960561740144492 9.13828187969655 30.94384474859991 0 4 -1
156 16 2 -0.091672 10.5247032729246 0.7805036359434119 27.682715633721635 -3 0 0
148 15 6 0.404798 3.436382199638794 0.9856348578901457 29.639301728416672 -1 -2 -3
1170 117 10 -0.358962 7.617248922813707 10.214693672195464 25.370112392043865 -1 2 -2
1053 106 7 -0.358962 3.9340524350144577 5.157527678080736 28.533432860462938 -2 2 0
1055 106 8 -0.358962 4.685597917709329 9.486559896761914 28.580471856366962 -2 2 0
243 25 7 -0.358962 3.0416279333132787 7.597624250028102 25.543111313197304 4 0 1
152 16 3 0.404798 10.255930182269624 2.458423620151258 29.31732883291139 -3 0 0
1218 122 6 0.404798 1.2033934183623065 8.498856739773133 28.296543790087558 2 0 1
1051 106 1 -0.091672 5.596383822428066 7.112577380902682 28.546892683628265 -2 2 0
1164 117 4 0.404798 12.368094940311673 10.395000424266083 24.838246113617597 -1 2 -2
679 68 9 -0.358962 6.587270032752716 5.371339306899796 25.95386129814648 1 -1 -3
354 36 4 0.404798 5.7840516748217 0.3685244665325323 24.527287552186067 1 1 -2
242 25 3 0.404798 3.6154149412220886 8.18266662891354 24.722079055880975 4 0 1
1340 134 10 -0.358962 3.557817759435444 5.494339876884768 23.85166649292443 1 -1 2
1335 134 8 -0.358962 1.0807365611565212 1.963381643773123 27.77634616385185 1 -1 2
149 15 9 -0.358962 5.412151288416133 3.4545284419106874 31.14786563037521 -1 -2 -3
1165 117 8 -0.358962 13.520761275678101 10.42380339585214 24.965252854831256 -1 2 -2
154 16 4 0.404798 8.949601573531734 0.4770610654031045 29.43122843236746 -3 0 0
35 4 8 -0.358962 9.601424426240463 6.606645788739075 30.86856626407461 2 1 0
147 15 5 0.404798 4.567193446340821 2.6673368377013893 31.03843213398945 -1 -2 -3
1161 117 1 -0.091672 10.948473814752504 10.230681908837372 24.68590612481176 -1 2 -2
158 16 6 0.404798 11.631044347258536 1.475103492281367 27.143417476199378 -3 0 0
355 36 8 -0.358962 5.684228057967817 0.24317499806064374 25.6761664650605 1 1 -2
1606 161 2 -0.091672 13.127539609106478 0.42461991920598957 30.549364328205574 0 -1 2
1058 106 6 0.404798 7.629330765870031 5.800940137706757 28.567902881270307 -2 2 0
241 25 1 -0.091672 4.326322823646618 8.760433344827407 23.633671629438112 4 0 1
1056 106 2 -0.091672 6.9351542301629605 7.055189012551279 28.547513217185994 -2 2 0
565 57 8 -0.358962 14.543397737713624 5.773657673010199 23.691650475943888 5 2 -2
1060 106 10 -0.358962 8.220894372130331 4.816534654704578 28.73099288634146 -2 2 0
561 57 1 -0.091672 15.003186409877348 6.59249247965312 26.12231057046538 5 2 -2
1059 106 9 -0.358962 8.626457246412343 8.982404157120333 28.41043008158529 -2 2 0
562 57 3 0.404798 14.171459391482196 5.931742996597929 27.02817665277251 5 2 -2
153 16 7 -0.358962 10.565334850273263 3.5179951203496507 29.67394767135663 -3 0 0
160 16 10 -0.358962 12.531455878610595 2.0637221506540873 26.709381586030077 -3 0 0
151 16 1 -0.091672 9.890105401183714 1.198205304681865 28.786532150438102 -3 0 0
564 57 4 0.404798 14.808880235817638 6.169283813829708 24.749288884592236 5 2 -2
675 68 8 -0.358962 10.715462325262413 4.665178918132743 25.657147975405458 1 -1 -3
674 68 4 0.404798 9.902368807050369 4.2475725506115305 24.942946410762534 1 -1 -3
244 25 4 0.404798 5.788981383448787 8.491463447030208 23.543329173242483 4 0 1
677 68 5 0.404798 7.092789039917244 4.736656945708157 25.12486863292263 1 -1 -3
563 57 7 -0.358962 13.434509775332739 5.356003289359694 27.714492231022234 5 2 -2
150 15 10 -0.358962 3.3964219814206236 0.47289553250949706 28.59954138789342 -1 -2 -3
1168 117 6 0.404798 8.757930339164737 10.33442004396595 25.54363906114418 -1 2 -2
1610 161 10 -0.358962 14.500204195225006 2.498337606530541 31.248490902263505 0 -1 2
1607 161 5 0.404798 11.917417737800125 0.04796518826777642 31.29019734732197 0 -1 2
852 86 3 0.404798 3.14930069607443 13.98351590615415 4.437492690301785 0 -1 0
475 48 8 -0.358962 7.09650804374226 15.536621988076721 6.7356025601755976 -3 -2 -2
603 61 7 -0.358962 0.12033847064379363 12.748050092408763 1.2998128160158728 4 -1 3
968 97 6 0.404798 3.3697418892627975 18.827249467015648 5.5527279775427765 4 0 1
966 97 2 -0.091672 3.7046757552213934 19.89386472699872 4.676170757839856 4 0 1
961 97 1 -0.091672 2.9960020967989167 20.0572456195845 3.550698257953064 4 0 1
967 97 5 0.404798 4.984876916478564 20.474935008690796 4.899122934330832 4 0 1
970 97 10 -0.358962 3.256580954037199 17.910203885865787 6.254028203432693 4 0 1
170 17 10 -0.358962 10.902652819455938 15.872049191169856 1.700884060159848 1 -1 -1
857 86 5 0.404798 2.9788027483617454 10.575502844022212 5.915331526735498 0 -1 0
1199 120 9 -0.358962 14.010658032685285 16.96034040283558 2.69460156464882 0 0 2
218 22 6 0.404798 14.554119926367367 12.692459983378729 5.069444069435205 1 1 -2
851 86 1 -0.091672 3.2667481143283843 12.91988709416496 5.368793171497002 0 -1 0
854 86 4 0.404798 3.7672752563698326 13.086123090473851 6.7013466194298035 0 -1 0
1510 151 10 -0.358962 14.65120197017813 10.62643807177913 2.1159697050716892 0 0 -1
1191 120 1 -0.091672 13.397336693946054 20.274540578357247 1.8212842938305152 0 0 2
855 86 8 -0.358962 3.991418599758972 13.291194511086681 7.82085790522618 0 -1 0
439 44 9 -0.358962 15.572614955135435 20.621182262937356 4.729680526129092 0 -2 2
1073 108 7 -0.358962 6.893573654264393 16.195963660959677 1.585471869927947 -1 -3 -1
1072 108 3 0.404798 7.0688703227930665 17.254280726030267 2.026874322427843 -1 -3 -1
1290 129 10 -0.358962 7.531308514529443 12.715850605389296 1.1159811023637485 -2 -1 2
1071 108 1 -0.091672 7.372858911995276 18.562114551729103 2.5140473769423677 -1 -3 -1
912 92 3 0.404798 10.741411775422147 12.008739144771 6.686047699778847 -2 4 1
1348 135 6 0.404798 9.504789779305707 11.017275413412708 2.742534293721715 -1 0 1
856 86 2 -0.091672 2.8217271134257254 11.697160068113671 5.048644841329463 0 -1 0
853 86 7 -0.358962 3.013321475197405 14.896563223910201 3.735029670707207 0 -1 0
1076 108 2 -0.091672 7.252672930805409 19.686329589080987 1.7948145294311029 -1 -3 -1
1078 108 6 0.404798 6.504333715111167 19.61563719996159 0.4895032337042459 -1 -3 -1
1283 129 7 -0.358962 3.965658379566077 11.376403760519455 1.37357953059382 -2 -1 2
858 86 6 0.404798 2.160229690714254 11.241540057977984 3.8478556352090565 0 -1 0
962 97 3 0.404798 1.7473216629838515 19.3619302643881 3.4164243082927594 4 0 1
1508 151 6 0.404798 15.000228190927963 11.157781556005098 1.145683766367618 0 0 -1
1282 129 3 0.404798 4.165895072936481 12.295712243181507 0.6950685166017632 -2 -1 2
963 97 7 -0.358962 0.795092948073039 18.700794505750974 3.3744721527130066 4 0 1
860 86 10 -0.358962 1.566409124272999 10.819154661709232 2.945321583484331 0 -1 0
1349 135 9 -0.358962 9.830141136563395 14.218556312003189 4.152764846463879 -1 0 1
1194 120 4 0.404798 14.165146202124932 19.740506148840566 0.7389460074038002 0 0 2
211 22 1 -0.091672 15.09633671896711 13.920460332847501 3.049975162564724 1 1 -2
1075 108 8 -0.358962 8.515962985812113 18.804719424217755 4.830462885586936 -1 -3 -1
438 44 6 0.404798 14.52538057908654 17.388406061972265 5.799265380469272 0 -2 2
1074 108 4 0.404798 7.942883334840059 18.63692192877149 3.8359661596732084 -1 -3 -1
1258 126 6 0.404798 10.947945422894742 18.597941551908374 7.603639130127947 -2 0 1
436 44 2 -0.091672 15.36584717432501 18.48601723212813 6.1617409241936745 0 -2 2
1260 126 10 -0.358962 11.322253793950507 17.790960419874743 6.859142842216592 -2 0 1
212 22 3 0.404798 13.787404647533782 13.562621526347282 2.557128040751796 1 1 -2
874 88 4 0.404798 0.08627406876719414 15.271469364023417 7.071195556341942 1 -1 2
1198 120 6 0.404798 12.546684262250377 19.836580962046558 3.9853912992127682 0 0 2
220 22 10 -0.358962 13.87566749769373 12.013127319215727 5.720450547253875 1 1 -2
437 44 5 0.404798 15.398620723248264 19.642328349959293 5.327318402676765 0 -2 2
1345 135 8 -0.358962 6.716946515278937 12.789908962152314 6.254802196015304 -1 0 1
1347 135 5 0.404798 9.417404307790834 13.158165799138724 3.927331311992371 -1 0 1
1344 135 4 0.404798 7.239755685603806 12.260931346027206 5.364603749912044 -1 0 1
168 17 6 0.404798 11.523527586240801 15.74643599735806 0.7291146103002943 1 -1 -1
213 22 7 -0.358962 12.7525469014569 13.192308640090468 2.1862671253613026 1 1 -2
911 92 1 -0.091672 10.3129085132285 10.641159896161142 6.611113208531232 -2 4 1
440 44 10 -0.358962 13.940015468790167 16.43348721170949 5.497474569533067 0 -2 2
1341 135 1 -0.091672 7.762239926263263 11.489584886216761 4.2930916073894645 -1 0 1
913 92 7 -0.358962 11.014061420688005 13.136141304078418 6.670994438975259 -2 4 1
1288 129 6 0.404798 6.7262279865461725 13.323450742995433 0.5430348242021867 -2 -1 2
1197 120 5 0.404798 13.621122257651821 18.052918925345317 2.683022683901674 0 0 2
1346 135 2 -0.091672 8.883071550574517 11.90086148493463 3.684660805370247 -1 0 1
216 22 2 -0.091672 15.453438681909365 13.483632524941633 4.265400874876576 1 1 -2
1196 120 2 -0.091672 13.174115640676446 19.39128617420329 2.8039510939835273 0 0 2
1200 120 10 -0.358962 11.8578307711289 20.170928218808857 4.856765383546981 0 0 2
1256 126 2 -0.091672 10.561753360662134 19.571717571564644 8.535776568932084 -2 0 1
42 5 3 0.404798 7.224107103556437 11.398437227677242 12.571670760484325 0 2 3
50 5 10 -0.358962 10.732100553280109 11.158669662765387 13.200699994801088 0 2 3
41 5 1 -0.091672 7.525002697780996 12.499860185962959 13.393096590364957 0 2 3
44 5 4 0.404798 6.463761624299391 13.332698796105939 13.657355817928952 0 2 3
45 5 8 -0.358962 5.5264417056696855 14.002776143274192 13.791623253665175 0 2 3
348 35 6 0.404798 14.033080190507352 19.28441489435014 14.149751304761445 -3 0 2
1527 153 5 0.404798 2.738680729949483 13.211916186901732 11.99369335576422 -1 1 1
1529 153 9 -0.358962 3.645483480924507 12.634048045291742 12.428868250483308 -1 1 1
474 48 4 0.404798 6.885287177972651 15.758624085000756 7.854396920756255 -3 -2 -2
1521 153 1 -0.091672 0.6946682730188236 13.296375245225612 10.54686966460687 -1 1 1
1528 153 6 0.404798 1.484749613825012 15.221551715321818 11.84019968060455 -1 1 1
480 48 10 -0.358962 5.109135707575053 16.971462270378662 12.282774911748612 -3 -2 -2
1526 153 2 -0.091672 1.6225599448063766 13.908759352660743 11.294935673228945 -1 1 1
477 48 5 0.404798 4.246217335422232 15.695212282530614 9.170484336259147 -3 -2 -2
23 3 7 -0.358962 3.4352343597205754 19.299893181440737 11.748095459213403 -1 3 -2
471 48 1 -0.091672 6.624859638863668 16.144695950309472 9.198673807199572 -3 -2 -2
443 45 7 -0.358962 3.0350404715222976 17.999374474952827 15.085451808905782 -1 -4 2
478 48 6 0.404798 5.240840627205035 16.580124038326854 11.198750824837804 -3 -2 -2
1436 144 2 -0.091672 14.949609757685604 10.75369581950803 8.40302753133062 1 3 0
350 35 10 -0.358962 14.808804693898056 19.142778525574354 13.298992436267332 -3 0 2
1530 153 10 -0.358962 1.3095104438168728 16.31835538529105 12.174733720442816 -1 1 1
729 73 9 -0.358962 6.755413107076935 19.587367144329615 11.696716921572985 0 0 1
63 7 7 -0.358962 3.363682677606481 12.8000412064882 15.521712078942395 -1 1 3
442 45 3 0.404798 3.9354824088580145 18.712306864633913 15.248337434925874 -1 -4 2
26 3 2 -0.091672 2.9111551946699983 20.509523893597734 8.448896218148814 -1 3 -2
1524 153 4 0.404798 0.7922571066466 11.953813409322967 10.196255933728036 -1 1 1
21 3 1 -0.091672 3.7314618491063496 20.610196583839958 9.503676775454526 -1 3 -2
1257 126 5 0.404798 9.148658109891544 19.62858026686143 8.81857957448082 -2 0 1
875 88 8 -0.358962 0.5644103687648192 15.466571018237248 8.109906797549007 1 -1 2
441 45 1 -0.091672 4.956808786341922 19.713920090048017 15.412338135379416 -1 -4 2
476 48 2 -0.091672 5.430397607967967 16.20284313264045 9.803222731248642 -3 -2 -2
28 3 6 0.404798 1.8717437581925105 19.545931311637354 8.435360018020445 -1 3 -2
918 92 6 0.404798 8.31744862886651 11.164744910331315 7.955979699244146 -2 4 1
824 83 4 0.404798 10.813221585775345 15.60804048635326 9.282509461119403 -1 0 2
47 5 5 0.404798 9.122611936838387 14.067425709936215 14.353227688154929 0 2 3