LAMMPS data file via write_data, version 29 Sep 2021, timestep = 5000398

1620 atoms
10 atom types
1458 bonds
9 bond types
1620 angles
10 angle types
1944 dihedrals
12 dihedral types

-15.455417293012587 15.455417293012587 xlo xhi
-15.455417293012587 15.455417293012587 ylo yhi
-15.455417293012587 15.455417293012587 zlo zhi

Masses

1 12.01
2 12.01
3 12.01
4 12.01
5 12.01
6 12.01
7 14.01
8 14.01
9 14.01
10 14.01

Pair Coeffs # lj/cut/coul/long

1 0.076 3.55
2 0.076 3.55
3 0.066 3.3
4 0.066 3.3
5 0.066 3.3
6 0.066 3.3
7 0.17 3.2
8 0.17 3.2
9 0.17 3.2
10 0.17 3.2

Bond Coeffs # harmonic

1 400 1.426
2 400 1.426
3 400 1.426
4 400 1.426
5 549 1.34
6 650 1.16
7 650 1.16
8 650 1.16
9 650 1.16

Angle Coeffs # harmonic

1 70 116.8
2 70 116.8
3 70 121.6
4 70 121.6
5 70 121.6
6 70 121.6
7 70 178.9
8 70 178.9
9 70 178.9
10 70 178.9

Dihedral Coeffs # opls

1 0 0 0 0
2 0 0 0 0
3 0 0 0 0
4 0 0 0 0
5 0 0 0 0
6 0 0 0 0
7 0 0 0 0
8 0 0 0 0
9 0 14 0 0
10 0 14 0 0
11 0 14 0 0
12 0 14 0 0

Atoms # full

1186 119 2 -0.091672 -11.481905676993021 -14.17997342334283 -13.18942911335754 0 1 0
508 51 6 0.404798 -7.81310185771067 -8.653014521887908 -12.844024064017034 1 0 1
510 51 10 -0.358962 -8.049345419352457 -8.309030787170247 -11.800880879719953 1 0 1
1187 119 5 0.404798 -10.511279820950524 -13.163530331394085 -13.170108187820963 0 1 0
1189 119 9 -0.358962 -9.802188749132615 -12.230396098298986 -13.073822680467408 0 1 0
38 4 6 0.404798 -11.261270823098181 -11.889857637162066 -8.19071811960985 1 0 1
740 74 10 -0.358962 -11.285756413412772 -8.222575023066183 -9.707802200707421 0 0 0
1181 119 1 -0.091672 -12.75378341627862 -13.873433186789018 -12.881965314416806 0 1 0
376 38 2 -0.091672 -15.263007798929102 -9.115347665191809 -15.161997885263897 0 1 0
738 74 6 0.404798 -11.006950927441757 -7.290363622118653 -10.391511199515314 0 0 0
506 51 2 -0.091672 -7.633987033071382 -8.967141826367246 -14.210848709233549 1 0 1
40 4 10 -0.358962 -11.177998932442247 -11.247102361123535 -9.149215799040093 1 0 1
1184 119 4 0.404798 -13.12354324602838 -12.5124946920394 -12.56709092041803 0 1 0
731 74 1 -0.091672 -9.56178345180307 -5.4113691931301595 -11.121140543680921 0 0 0
1185 119 8 -0.358962 -13.384883233304185 -11.413959757717866 -12.342395479251385 0 1 0
33 4 7 -0.358962 -13.078628234916724 -14.951749220647898 -9.444744310824603 1 0 1
32 4 3 0.404798 -12.538773185304532 -14.53195850749904 -8.50614001024217 1 0 1
436 44 2 -0.091672 -14.427883579979152 -8.881373230100646 -9.037995434554517 0 0 1
732 74 3 0.404798 -8.49262584236896 -5.794235295298169 -10.200114710887139 0 0 0
433 44 7 -0.358962 -14.545153868287269 -12.327679566329072 -9.16136876772692 0 0 1
1182 119 3 0.404798 -13.736123546535064 -14.84592836892806 -12.67392823287906 0 1 0
503 51 7 -0.358962 -9.879891623716201 -6.452182970498885 -14.6886862600204 1 0 1
1418 142 6 0.404798 -7.583530381317302 -15.347883755893763 -12.186772546266004 0 1 1
434 44 4 0.404798 -15.389548419499812 -9.565556258878626 -11.09438893909308 0 0 1
733 74 7 -0.358962 -7.638478191482206 -6.067774511153132 -9.417831867845841 0 0 0
372 38 3 0.404798 -14.755689839358295 -6.805775653181927 -14.74704357498919 0 1 0
488 49 6 0.404798 -0.018783610339719203 -7.485390854303782 -10.985246078742033 -1 -1 0
374 38 4 0.404798 -13.049532790852805 -8.521485128601968 -14.350474396279456 0 1 0
559 56 9 -0.358962 -8.394793028947252 -11.062536297109656 -10.538594616676283 0 1 0
371 38 1 -0.091672 -14.35776102442703 -8.205604589228791 -14.83953034248672 0 1 0
502 51 3 0.404798 -9.244994075134127 -7.366419730130584 -15.028390068815431 1 0 1
431 44 1 -0.091672 -14.797558193509794 -9.874368339335208 -9.858381614289485 0 0 1
501 51 1 -0.091672 -8.36866935155339 -8.492853696387721 -15.21525711875506 1 0 1
439 44 9 -0.358962 -14.688600819639525 -6.384308906928137 -9.619594832185612 0 0 1
736 74 2 -0.091672 -10.695627685481918 -6.120147935023304 -11.205145674440345 0 0 0
437 44 5 0.404798 -14.589231929937752 -7.506267018786329 -9.303399860305994 0 0 1
432 44 3 0.404798 -14.645647073926312 -11.206216301554905 -9.557657969879784 0 0 1
375 38 8 -0.358962 -11.96537021193351 -8.742355354346882 -14.004174616762132 0 1 0
1420 142 10 -0.358962 -8.206566717101177 -14.616586938431855 -11.49550176923227 0 1 1
1055 106 8 -0.358962 -2.1908457010681257 -12.078169619855295 -10.004912936543114 1 0 1
1548 155 6 0.404798 -2.0387844332781864 -7.932794691662468 -15.153396074803227 0 0 0
509 51 9 -0.358962 -6.003328208570233 -10.8887772553622 -14.69321930273158 1 0 1
1059 106 9 -0.358962 -4.195627982106721 -13.429352297594642 -12.956810597810474 1 0 1
612 62 3 0.404798 -4.577386248738483 -5.419685510556093 -12.020835213730589 0 0 1
1110 111 10 -0.358962 -5.262286795856179 -13.585104080797649 -9.15383493792082 0 1 0
613 62 7 -0.358962 -5.645507225550801 -5.821485539504486 -12.03121925440037 0 0 1
507 51 5 0.404798 -6.75036563777239 -10.086975354955403 -14.34034147707832 1 0 1
1550 155 10 -0.358962 -2.5182155469151777 -7.91356775198322 -14.11920080204621 0 0 0
1056 106 2 -0.091672 -2.331386396548634 -11.689877388205144 -13.498333139393662 1 0 1
1108 111 6 0.404798 -4.426560718703941 -14.261625305806053 -8.823145952158047 0 1 0
557 56 5 0.404798 -7.655260027974034 -10.906378824061502 -9.677570397194152 0 1 0
1054 106 4 0.404798 -1.8747102793843595 -11.689294284594272 -11.09911868990785 1 0 1
1058 106 6 0.404798 -1.9675474576148577 -11.357651709878954 -14.9086574826839 1 0 1
1052 106 3 0.404798 -0.35052193551438826 -10.502550678401306 -12.597100829702377 1 0 1
1057 106 5 0.404798 -3.3786745319884 -12.625358715923298 -13.204800053988125 1 0 1
556 56 2 -0.091672 -6.854363708164236 -10.636545711826127 -8.569684107816034 0 1 0
551 56 1 -0.091672 -5.663930288741204 -9.957329474010209 -8.68349381216547 0 1 0
1051 106 1 -0.091672 -1.5744480989672187 -11.248100636557615 -12.435308773208913 1 0 1
554 56 4 0.404798 -5.183415152721295 -9.443706460943545 -9.933619828190345 0 1 0
1106 111 2 -0.091672 -3.2321058681684196 -14.935260679187428 -8.399707522753669 0 1 0
490 49 10 -0.358962 -1.1727990799393453 -7.559124735615031 -11.00173188568946 -1 -1 0
555 56 8 -0.358962 -4.707734245758971 -9.089129618288926 -10.9123082682012 0 1 0
377 38 5 0.404798 -14.918313972354886 -10.563162444257216 -15.256480272194688 0 1 0
737 74 5 0.404798 -11.73694536794652 -5.631786903167903 -12.063127249306065 0 0 0
373 38 7 -0.358962 -15.016266954825348 -5.702476348985639 -14.752208380287108 0 1 0
859 86 9 -0.358962 -0.21742264829702407 -15.122830360648626 -11.549915980801805 0 1 0
739 74 9 -0.358962 -12.549446194821304 -5.231224348882192 -12.787452781755489 0 0 0
383 39 7 -0.358962 -11.407455732602497 -11.330338190328689 -15.408483885675683 1 0 1
1290 129 10 -0.358962 -0.5832485934234306 -8.542083681154242 -7.956457466269345 0 0 0
379 38 9 -0.358962 -14.747641190195312 -11.688164403334909 -15.382260892503908 0 1 0
39 4 9 -0.358962 -10.900688130502672 -11.952787969701152 -4.689390342928506 1 0 1
156 16 2 -0.091672 -9.609196294192728 -6.643387239783818 -6.061370620058819 0 0 0
151 16 1 -0.091672 -8.353122611969082 -6.2158412108669765 -5.81810087747855 0 0 0
355 36 8 -0.358962 -10.293333962531307 -8.849515651410822 -3.35221597354405 0 0 0
359 36 9 -0.358962 -11.777550755372697 -12.6254071011618 -1.3960402983242304 0 0 0
595 60 8 -0.358962 -14.368720909457886 -6.451524385485357 -2.741494159477238 0 -1 1
354 36 4 0.404798 -10.749974158264969 -8.899355556594998 -2.2498100926779543 0 0 0
357 36 5 0.404798 -11.687473069157281 -11.567842192381056 -0.9313993366696991 0 0 0
351 36 1 -0.091672 -11.225134853539165 -9.12689644058317 -0.8882303822091675 0 0 0
438 44 6 0.404798 -13.941583165095297 -9.053094468341193 -7.718895176812667 0 0 1
356 36 2 -0.091672 -11.643547752260684 -10.254860445066939 -0.26459488841007683 0 0 0
115 12 8 -0.358962 -9.664080625274345 -15.0300233045481 -1.0617484433717284 0 0 0
113 12 7 -0.358962 -13.994410406395286 -14.687901187638333 -1.5149951577652914 0 0 0
34 4 4 0.404798 -12.209171709597666 -14.937458002994997 -6.109413497915096 1 0 1
704 71 4 0.404798 -14.90393753638407 -9.98658686500497 -2.9740387145406952 1 0 0
112 12 3 0.404798 -13.074755974828326 -15.319301129775832 -1.7063386525775321 0 0 0
705 71 8 -0.358962 -14.345316575585501 -9.627915491030723 -2.021097678829504 1 0 0
352 36 3 0.404798 -11.472841072820811 -7.992312756969585 -0.14948889616863426 0 0 0
589 59 9 -0.358962 -8.558019552764133 -14.559484480787951 -7.448728055370578 0 1 0
158 16 6 0.404798 -10.695916109484347 -5.7943913335611885 -6.30924857281733 0 0 0
37 4 5 0.404798 -11.166359911545944 -12.337668080115332 -5.766738520667367 1 0 1
303 31 7 -0.358962 -9.5768676638848 -15.339009255796372 -4.272527365824601 0 1 0
302 31 3 0.404798 -8.797501901804257 -14.591517802803558 -3.8522360328953056 0 1 0
304 31 4 0.404798 -8.209401998996958 -12.567516851370863 -2.6486535991366136 0 1 0
305 31 8 -0.358962 -8.511753693148563 -11.631535850735041 -2.050695948983524 0 1 0
157 16 5 0.404798 -9.919924549354096 -8.031703458542886 -6.37043218919923 0 0 0
703 71 7 -0.358962 -14.865052307997013 -12.700542105484562 -4.819261914754163 1 0 0
160 16 10 -0.358962 -11.67708808426096 -5.226015437986915 -6.5224977784630305 0 0 0
702 71 3 0.404798 -15.249200614546712 -11.683708191859425 -4.475309421013401 1 0 0
159 16 9 -0.358962 -10.140481838123781 -9.131358825201733 -6.756158056206855 0 0 0
301 31 1 -0.091672 -7.764476997489852 -13.647215800117063 -3.4929394699529333 0 1 0
993 100 7 -0.358962 -8.222325732065908 -8.028686337573234 -0.04403256185938176 -1 0 -1
440 44 10 -0.358962 -13.560309995086644 -9.171922185164789 -6.6195436559657015 0 0 1
36 4 2 -0.091672 -11.472414530177442 -12.799558930496067 -7.134415615378302 1 0 1
460 46 10 -0.358962 -2.3264572266436083 -5.306321846259886 -6.75262311958317 1 0 0
31 4 1 -0.091672 -12.03533920576364 -14.010125731235128 -7.224036218820588 1 0 1
597 60 5 0.404798 -15.132054934851059 -5.436190549005696 -5.960376630463596 0 -1 1
455 46 8 -0.358962 -0.29242068359240747 -8.860321580210341 -2.5748076052874804 1 0 0
1109 111 9 -0.358962 -2.4289547590657126 -14.050707292988996 -6.113340779593992 0 1 0
992 100 3 0.404798 -7.306802498449631 -8.76489043342615 -0.05829381105765741 -1 0 -1
1107 111 5 0.404798 -2.7624052060053668 -14.510344343681796 -7.120013704411987 0 1 0
687 69 5 0.404798 -7.955375163430728 -5.631907455940839 -1.8800288201205486 0 0 0
558 56 6 0.404798 -7.265834351044054 -11.209446097365033 -7.303404277993701 0 1 0
69 7 9 -0.358962 -0.6596121912751141 -14.887677715811732 -2.5131477056938287 0 0 1
594 60 4 0.404798 -14.362100861224327 -5.4593351794716085 -3.280312075736054 0 -1 1
1286 129 2 -0.091672 -0.1466125921125041 -11.001435366818637 -7.258639532036447 0 0 0
689 69 9 -0.358962 -7.750186522589136 -6.420259064460925 -2.7476838306000495 0 0 0
454 46 4 0.404798 -0.41369286322468035 -8.110616756737915 -3.428601461223586 1 0 0
155 16 8 -0.358962 -6.253218622551756 -7.680572739561782 -6.050739446388139 0 0 0
306 31 2 -0.091672 -6.479171564075536 -13.758547012441175 -3.8534871738621828 0 1 0
458 46 6 0.404798 -2.185914019287157 -6.091698124221232 -5.9138893448204755 1 0 0
1288 129 6 0.404798 -0.4068876653359972 -9.623596389400381 -7.519947054872149 0 0 0
996 100 2 -0.091672 -5.041973072272452 -9.0829522526471 -0.5621475604405894 -1 0 -1
552 56 3 0.404798 -4.7772476301969515 -9.968043545937391 -7.6109874836867055 0 1 0
308 31 6 0.404798 -6.0583601439496935 -14.724116012439215 -4.796806350216617 0 1 0
553 56 7 -0.358962 -4.083579587000537 -9.881852889848457 -6.681058163221531 0 1 0
154 16 4 0.404798 -7.237962434054349 -7.08440081746955 -5.962931325555752 0 0 0
1287 129 5 0.404798 -0.7269289029993544 -11.366921150549834 -5.923942085024404 0 0 0
560 56 10 -0.358962 -7.690930831142937 -11.628175790077567 -6.253605308715542 0 1 0
67 7 5 0.404798 -0.6978125062966605 -13.960821891928768 -1.8143752481216087 0 0 1
209 21 9 -0.358962 -3.72917081527871 -15.040066124639305 -1.7290330393501048 0 0 0
309 31 9 -0.358962 -5.029368141929785 -12.104957284728789 -2.683373905780382 0 1 0
459 46 9 -0.358962 -3.72990698300484 -8.057733551199604 -3.4249303037153584 1 0 0
997 100 5 0.404798 -3.749102245204588 -9.729445613345721 -0.524913450078321 -1 0 -1
456 46 2 -0.091672 -1.8827951207489306 -6.982283566396479 -4.9073493093374285 1 0 0
991 100 1 -0.091672 -6.200205431632192 -9.617660211067399 -0.22307280336799806 -1 0 -1
457 46 5 0.404798 -2.9025699232742888 -7.623060622590904 -4.096265323062642 1 0 0
463 47 7 -0.358962 -0.942513969066388 -6.502856832312297 -0.27846448264795143 0 0 0
66 7 2 -0.091672 -0.6068205310047485 -12.821157865792118 -0.932159476165161 0 0 1
999 100 9 -0.358962 -2.715822979859274 -10.248680530775104 -0.500304723882202 -1 0 -1
1289 129 9 -0.358962 -1.109072988905341 -11.542356135496592 -4.87429290941907 0 0 0
998 100 6 0.404798 -4.93399931468238 -7.7141065758975715 -0.7771690755836822 -1 0 -1
451 46 1 -0.091672 -0.5906236202013897 -7.218474633923906 -4.507479658430158 1 0 0
307 31 5 0.404798 -5.6031010119652205 -12.8470164605045 -3.320601096451705 0 1 0
1000 100 10 -0.358962 -4.886517359555581 -6.645130560376865 -1.0819762174545993 -1 0 -1
207 21 5 0.404798 -4.32372490415961 -15.363485953163448 -0.7460695937599908 0 0 0
1447 145 5 0.404798 -13.407851995043064 -8.08467471156112 5.512706526384179 1 1 0
1445 145 8 -0.358962 -11.775078202565572 -11.265406936503323 4.944753757891661 1 1 0
1444 145 4 0.404798 -12.853009232379321 -10.798132846150464 4.894149107447685 1 1 0
1441 145 1 -0.091672 -14.177801410787609 -10.310823715753713 4.993050501251972 1 1 0
1449 145 9 -0.358962 -12.534655392807679 -7.338420649065663 5.528340937534839 1 1 0
1215 122 8 -0.358962 -10.364490904548486 -8.485980615745808 2.8694188390682136 1 0 0
1214 122 4 0.404798 -9.495295385253714 -9.05480103148234 3.3275824606675393 1 0 0
1211 122 1 -0.091672 -8.461633773825927 -9.868494685628473 3.9126124415876333 1 0 0
360 36 10 -0.358962 -12.987632095286646 -10.47960607101664 2.0154413675572798 0 0 0
1216 122 2 -0.091672 -8.369626278832726 -11.136810794843335 3.574598873767531 1 0 0
1217 122 5 0.404798 -9.321493490456096 -11.741026021189114 2.595572717952617 1 0 0
1345 135 8 -0.358962 -12.872061943836982 -14.335125296806464 1.870703433196578 0 0 0
1446 145 2 -0.091672 -14.437642885693561 -9.033229569864847 5.342112456279629 1 1 0
232 24 3 0.404798 -9.005695196216816 -5.155736239294551 7.11943660498099 0 0 0
970 97 10 -0.358962 -7.697451804918248 -14.391187150440814 1.862281314237574 0 1 0
1219 122 9 -0.358962 -10.08587966012114 -12.278450643281724 1.876690736075247 1 0 0
969 97 9 -0.358962 -10.333907143453533 -14.024163626100767 5.027623410397389 0 1 0
967 97 5 0.404798 -10.028955996160835 -14.64734441190534 4.098661097840658 0 1 0
968 97 6 0.404798 -8.632136864326615 -14.885453607665717 2.288315611086716 0 1 0
1212 122 3 0.404798 -7.703691878534067 -9.211633891844764 5.009456751025812 1 0 0
233 24 7 -0.358962 -8.111326327810305 -5.588607369104311 6.580750026190653 0 0 0
1344 135 4 0.404798 -14.01187648955526 -14.52105132678501 1.6480929456350708 0 0 0
358 36 6 0.404798 -12.421543229313066 -10.3197186002885 0.9997484044711769 0 0 0
1442 145 3 0.404798 -15.197692378547654 -11.202252206720472 4.68432917499042 1 1 0
1218 122 6 0.404798 -7.400401582219301 -12.005309471951044 4.122599320872553 1 0 0
1440 144 10 -0.358962 -14.774011199376757 -7.571328506043767 2.1849979743742125 0 0 0
1557 156 5 0.404798 -6.54053420385338 -15.163279604285608 6.628303409053174 0 0 0
1349 135 9 -0.358962 -15.177780153368065 -11.614932864786427 0.3199826267886685 0 0 0
995 100 8 -0.358962 -6.392265583720334 -12.142064146867142 0.425405340559438 -1 0 -1
1072 108 3 0.404798 -3.9982048727881487 -10.91351829706123 3.3844103258095757 0 0 0
1071 108 1 -0.091672 -2.591411366481319 -11.135024012766673 3.6968880412756384 0 0 0
268 27 6 0.404798 -5.848847804940654 -6.261799342255939 3.7831632083165587 0 0 0
1078 108 6 0.404798 -1.827139176655523 -9.03625410247486 2.814238594294995 0 0 0
262 27 3 0.404798 -3.78739536343112 -6.9043519442719425 5.521478047195167 0 0 0
1556 156 2 -0.091672 -5.261466943314467 -15.077166331885895 7.246044048382323 0 0 0
1075 108 8 -0.358962 -2.103421533990943 -13.164367998258875 5.159149483320636 0 0 0
1080 108 10 -0.358962 -2.160523075819638 -7.96093409589481 2.3731300289928576 0 0 0
261 27 1 -0.091672 -4.361528062112663 -5.533774668883716 5.4037440436773565 0 0 0
1305 131 8 -0.358962 -10.281426215078499 -5.499643346758507 3.326009024460628 0 0 -1
263 27 7 -0.358962 -3.491833839481586 -8.003651825506498 5.695391581186151 0 0 0
253 26 7 -0.358962 -0.45982535290767146 -6.500782997016721 4.7281501133940615 0 0 0
1554 156 4 0.404798 -5.76487840727771 -12.769789351294257 7.52797073190078 0 0 0
266 27 2 -0.091672 -5.424596306103021 -5.276251451510909 4.652489398416947 0 0 0
1076 108 2 -0.091672 -1.5661759841480034 -10.264606807026533 3.3787592987419934 0 0 0
1551 156 1 -0.091672 -4.874134439481306 -13.89154622349175 7.636507466703609 0 0 0
1077 108 5 0.404798 -0.27032653148581964 -10.557379645756495 3.7986972429239216 0 0 0
1213 122 7 -0.358962 -7.147746808391032 -8.709506543107612 5.907708658980869 1 0 0
270 27 10 -0.358962 -6.170598655490009 -7.108209944519791 3.121121270483293 0 0 0
1220 122 10 -0.358962 -6.590142278879947 -12.57634418949414 4.656989570763347 1 0 0
1073 108 7 -0.358962 -5.085211062472554 -10.589160345484292 3.0487821964099275 0 0 0
994 100 4 0.404798 -6.292588947416656 -11.04850402844546 0.15151931008587738 -1 0 -1
1074 108 4 0.404798 -2.3055080834897765 -12.269970386422617 4.51252713400125 0 0 0
70 7 10 -0.358962 -2.1372465065959343 -13.03829349555364 1.173596967857538 0 0 1
353 36 7 -0.358962 -11.668466316894248 -7.004436094335064 0.363786543549649 0 0 0
68 7 6 0.404798 -1.4959759838896183 -12.960698553855929 0.21292941796329856 0 0 1
1341 135 1 -0.091672 -15.406702238907188 -14.772190858819142 1.5730930056867827 0 0 0
462 47 3 0.404798 -1.5089751227302752 -5.530903205982677 0.010045046893866427 0 0 0
1555 156 8 -0.358962 -6.522081057032485 -11.846054351933518 7.528038554994726 0 0 0
1559 156 9 -0.358962 -7.570934536716438 -15.177217263958749 6.069944373866267 0 0 0
210 21 10 -0.358962 -4.058164338558635 -15.44176009262566 2.72986717318172 0 0 0
388 39 6 0.404798 -11.513863742710468 -8.747603409298385 13.057156556017304 1 0 0
386 39 2 -0.091672 -12.084180465559527 -9.90780464765473 12.357442993219475 1 0 0
381 39 1 -0.091672 -12.19455250855633 -11.056114447208463 13.029525479798156 1 0 0
384 39 4 0.404798 -12.55842750649198 -12.24901362141638 12.36464424381337 1 0 0
385 39 8 -0.358962 -12.752432652288675 -13.330148113305448 11.961713856206348 1 0 0
387 39 5 0.404798 -12.592265956576888 -9.81705102245858 11.06377479404399 1 0 0
382 39 3 0.404798 -11.72697035090303 -11.201664092697868 14.387846317351254 1 0 0
390 39 10 -0.358962 -11.041903980362651 -7.7791701911693085 13.524417227767778 1 0 0
389 39 9 -0.358962 -12.935187562699431 -9.818892840179323 9.98866500303242 1 0 0
1118 112 6 0.404798 -10.150279365869265 -12.675457893024145 9.812410253437172 0 1 0
1547 155 5 0.404798 -0.17499738672524145 -7.799365739333141 14.227071958732278 0 0 -1
1116 112 2 -0.091672 -10.096514854186811 -13.981412753467671 9.27690606630322 0 1 0
20 2 10 -0.358962 -8.102411934248288 -7.037994609702741 11.287620938705995 0 0 -1
729 73 9 -0.358962 -14.420253273698824 -7.151708705553903 12.00243526238446 1 0 0
1111 112 1 -0.091672 -11.129605565496053 -14.531029073939154 8.614848477616878 0 1 0
258 26 6 0.404798 -1.0454366219930566 -7.466906111531978 8.049837950647614 0 0 0
237 24 5 0.404798 -12.000923826334782 -5.162328617231255 9.296566556068033 0 0 0
1117 112 5 0.404798 -8.903503897130928 -14.684861801842713 9.41639539321881 0 1 0
1355 136 8 -0.358962 -11.668166011004757 -15.372097712223981 14.683469278744788 0 0 0
135 14 8 -0.358962 -8.75944205712135 -12.144207145362305 14.074398524462556 1 0 1
238 24 6 0.404798 -10.615320166142915 -6.977783384066974 8.692293716018838 0 0 0
131 14 1 -0.091672 -6.780276083186164 -13.63148677785463 13.475267182141007 1 0 1
1120 112 10 -0.358962 -10.047982768453574 -11.549517552627686 10.17187691264964 0 1 0
1113 112 7 -0.358962 -13.395735247076177 -13.303154661858766 8.344704490746253 0 1 0
504 51 4 0.404798 -8.145710889486345 -9.027393824784468 14.382256838961236 1 0 0
134 14 4 0.404798 -7.909661725604047 -12.822161667562522 13.756656949177188 1 0 1
240 24 10 -0.358962 -10.460967747365839 -8.100506547808932 8.798654623109186 0 0 0
725 73 8 -0.358962 -14.793252231050328 -7.191273910526684 7.835342769875837 1 0 0
1112 112 3 0.404798 -12.39553488992698 -13.861523574338559 8.356028469123483 0 1 0
1060 106 10 -0.358962 -1.7220725282439986 -11.107560215271029 14.855724165163775 1 0 0
505 51 8 -0.358962 -8.179616263416596 -9.384037236905428 13.290606148191134 1 0 0
236 24 2 -0.091672 -10.849050134133046 -5.574422563655997 8.62561342936278 0 0 0
727 73 5 0.404798 -15.366998036887331 -6.82994258619358 11.419053803762285 1 0 0
1205 121 8 -0.358962 -15.397710054715171 -15.164136949347562 15.295490829618224 1 0 0
1544 155 4 0.404798 -1.7668996644595154 -8.489528387305416 12.041661215496056 0 0 -1
1552 156 3 0.404798 -3.5741992955758928 -13.715896980169399 8.092332502833791 0 0 0
1119 112 9 -0.358962 -7.888314021701573 -15.194320953874161 9.613143674989917 0 1 0
13 2 7 -0.358962 -4.8769477567724895 -5.5343942464918126 9.28221239776516 0 0 -1
18 2 6 0.404798 -7.258590600560199 -7.730367532690397 10.829019638265471 0 0 -1
1543 155 7 -0.358962 -4.94642937034059 -8.63023399645367 13.656384149022738 0 0 -1
11 2 1 -0.091672 -5.208564032107551 -8.032332404399494 9.528062813149102 0 0 -1
1553 156 7 -0.358962 -2.5481983688459664 -13.655139367656556 8.580616392973916 0 0 0
573 58 7 -0.358962 -2.809978864087901 -5.312189672006591 11.571180995143255 0 0 0
133 14 7 -0.358962 -4.515396860901857 -12.523771208838319 13.561996225426249 1 0 1
137 14 5 0.404798 -8.198709206854602 -15.39756674893472 12.663242770642487 1 0 1
1545 155 8 -0.358962 -1.3794254029583328 -8.734583412113238 11.009647980711094 0 0 -1
12 2 3 0.404798 -4.997378895619931 -6.631781219752892 9.307982619807287 0 0 -1
445 45 8 -0.358962 -2.521904800803215 -14.675015421958074 14.07933853903424 0 0 0
15 2 8 -0.358962 -3.5221307275287046 -9.688063632086894 8.56416974743697 0 0 -1
136 14 2 -0.091672 -6.903615293681684 -14.896318206727226 12.957567760115676 1 0 1
123 13 7 -0.358962 -2.5875091279014004 -11.395496705024794 10.629372766642135 0 0 0
17 2 5 0.404798 -6.252362623697973 -9.90411533015784 10.573082987986059 0 0 -1
1546 155 2 -0.091672 -1.551348353187155 -8.060150741562207 14.43243811829355 0 0 -1
122 13 3 0.404798 -1.7306895745049182 -11.812843744639991 11.196961887525042 0 0 0
245 25 8 -0.358962 -6.4526936841124645 -5.494200179677302 13.732929801406222 1 0 0
132 14 3 0.404798 -5.557440479027072 -12.987561439209433 13.57398550070937 1 0 1
1542 155 3 0.404798 -3.772946278052437 -8.487702025421163 13.537063148941971 0 0 -1
1541 155 1 -0.091672 -2.3233888718185973 -8.316447443442431 13.39865986875202 0 0 -1
19 2 9 -0.358962 -6.290424693658622 -10.989155495330062 10.891621192796798 0 0 -1
128 13 6 0.404798 -1.0596322779939005 -14.745425071083016 11.515096746724009 0 0 0
126 13 2 -0.091672 -0.2612232793105669 -13.63740798415176 11.921371370346804 0 0 0
260 26 10 -0.358962 -2.0104013902638442 -6.859307933336211 8.153926833227839 0 0 0
14 2 4 0.404798 -4.27068528884149 -8.89615586432519 8.904398322708854 0 0 -1
121 13 1 -0.091672 -0.5704055128877794 -12.321733903442155 11.85820199250302 0 0 0
16 2 2 -0.091672 -6.199234524967723 -8.555630875844912 10.232184602274373 0 0 -1
718 72 6 0.404798 -12.53133407143799 0.05268515322395473 -10.409145028126439 0 -1 1
716 72 2 -0.091672 -12.678061017621804 1.2489141091632803 -11.169198234783034 0 -1 1
717 72 5 0.404798 -13.148999198409559 0.9402308430717561 -12.569480685372353 0 -1 1
711 72 1 -0.091672 -12.333632540085057 2.475299822416627 -10.744966313317342 0 -1 1
712 72 3 0.404798 -11.597130045192186 2.740373402171354 -9.567027631118606 0 -1 1
714 72 4 0.404798 -12.565552471785445 3.6587531911670794 -11.477881101904293 0 -1 1
720 72 10 -0.358962 -12.290113827058452 -0.8549366474976896 -9.750490939317373 0 -1 1
719 72 9 -0.358962 -13.465920100615856 0.689199170821226 -13.65521403404711 0 -1 1
1480 148 10 -0.358962 -14.421120714254002 -3.072612382699475 -10.22182957098486 1 0 0
919 92 9 -0.358962 -10.396083821176315 2.2285768690258507 -13.725720598058642 0 0 0
715 72 8 -0.358962 -12.779319785156321 4.652373646750416 -12.07489451776814 0 -1 1
713 72 7 -0.358962 -11.139909089164115 3.0607678570814585 -8.560208342192725 0 -1 1
1003 101 7 -0.358962 -15.00528985730465 1.5966047200158933 -8.43772757495772 1 0 0
750 75 10 -0.358962 -11.002634449912794 -1.5076352737717613 -14.870037340113264 1 1 1
734 74 4 0.404798 -9.260479879498323 -4.215573355713742 -11.831231859395928 0 0 0
780 78 10 -0.358962 -9.566070272248561 0.1854041412492542 -11.448188520123022 0 0 0
1597 160 5 0.404798 -3.672226150920574 -1.9995601584370561 -7.856607528667667 0 1 0
24 3 4 0.404798 -9.33775996226673 -2.1980578487624527 -7.882929775177587 0 0 0
615 62 8 -0.358962 -2.033519646685029 -4.084292834751189 -9.883442267832141 0 0 1
917 92 5 0.404798 -10.420152881509365 2.2892147376334933 -14.85831184664385 0 0 0
778 78 6 0.404798 -8.51387449359024 -0.05344314471406442 -11.886126092379344 0 0 0
1612 162 3 0.404798 -1.0303547695629245 4.958829440265681 -9.808783292454304 0 0 0
223 23 7 -0.358962 -0.8713352364167299 1.0288329953512303 -8.043660584374436 0 1 0
22 3 3 0.404798 -8.262373214924832 -0.13981415395214114 -8.130874171131953 0 0 0
748 75 6 0.404798 -12.003080795456414 -1.9459137356626748 -15.3156700106041 1 1 1
611 62 1 -0.091672 -3.207374427257136 -4.847619238453936 -12.070383698072165 0 0 1
23 3 7 -0.358962 -7.510174342500771 0.4204872446577834 -8.821859537316302 0 0 0
1603 161 7 -0.358962 -9.329881720168217 4.521977725860186 -11.06698078593093 0 0 0
25 3 8 -0.358962 -9.503602233045537 -3.2955429411706714 -8.316380516103672 0 0 0
1484 149 4 0.404798 -0.008495848264084671 3.8262942642235487 -14.664373598714976 0 0 0
735 74 8 -0.358962 -9.082445953591627 -3.242624793038658 -12.454832301818152 0 0 0
614 62 4 0.404798 -2.59705250647111 -4.469890171524845 -10.819301253912691 0 0 1
779 78 9 -0.358962 -6.611652314725953 1.2437372425196322 -14.41241073216684 0 0 0
249 25 9 -0.358962 -7.127473779429682 -2.4532873988350516 -14.691151799928509 1 0 1
46 5 2 -0.091672 -6.021588901720108 4.159437399549262 -9.331120684369717 0 0 1
616 62 2 -0.091672 -2.6121570066528665 -4.403019060461748 -13.220043856212019 0 0 1
773 78 7 -0.358962 -6.696292436361555 -2.790457472362821 -9.911060967166442 0 0 0
48 5 6 0.404798 -6.5003786477339 3.1975910540520474 -10.256971440537693 0 0 1
222 23 3 0.404798 -0.40098666940631134 0.10449242386387603 -8.620091729245068 0 1 0
771 78 1 -0.091672 -6.38026361670517 -1.2239513451001187 -11.9918641809022 0 0 0
774 78 4 0.404798 -5.109675246387589 -1.4440944130738327 -12.57731264096689 0 0 0
1599 160 9 -0.358962 -2.9941086908452714 -1.477899427412419 -8.680925447059899 0 1 0
1487 149 5 0.404798 -1.595680603700366 1.826048563451529 -13.322084353921461 0 0 0
1488 149 6 0.404798 -1.5737817612635698 0.5204776266233964 -15.24958050309593 0 0 0
775 78 8 -0.358962 -4.054066938695785 -1.608159624419402 -13.05875539714613 0 0 0
618 62 6 0.404798 -3.142223804908067 -4.718125600174645 -14.497622714446866 0 0 1
1613 162 7 -0.358962 -1.9861864630356987 4.42504105272673 -9.432209698088622 0 0 0
619 62 9 -0.358962 -0.37171820784522325 -3.153283556645853 -13.289940835532047 0 0 1
772 78 3 0.404798 -6.6426373111111765 -2.0963231649620138 -10.859663988172104 0 0 0
776 78 2 -0.091672 -7.3070748419660525 -0.37242179924937346 -12.505722678802222 0 0 0
1481 149 1 -0.091672 -0.5087826982204966 2.666355818774054 -15.295450350573999 0 0 0
617 62 5 0.404798 -1.3533632877731652 -3.717997908856761 -13.205302421437974 0 0 1
1489 149 9 -0.358962 -2.014378503299376 1.8792712058068233 -12.236036184969928 0 0 0
777 78 5 0.404798 -6.963125672768719 0.5165983784054013 -13.572425750497446 0 0 0
41 5 1 -0.091672 -5.160767056476166 3.713839358803938 -8.36348182908281 0 0 1
42 5 3 0.404798 -4.769489986159906 2.3605683371002257 -8.50973582846675 0 0 1
43 5 7 -0.358962 -4.498369920324727 1.2419218719260243 -8.654547625240387 0 0 1
1486 149 2 -0.091672 -1.2114054679590414 1.6999490703307458 -14.661729962953661 0 0 0
50 5 10 -0.358962 -6.913559898027202 2.386100525823185 -11.037105788289091 0 0 1
29 3 9 -0.358962 -11.639149903318451 -2.317589992497794 -5.463477932944821 0 0 0
27 3 5 0.404798 -10.783631999169248 -1.5852668355166557 -5.707407544193973 0 0 0
850 85 10 -0.358962 -10.407314422476729 0.5372955046671297 -2.0137217942515235 1 0 0
26 3 2 -0.091672 -9.86392567595831 -0.635898802541508 -6.269917890891099 0 0 0
848 85 6 0.404798 -11.509530143286147 0.43369675791016427 -1.6460022936025265 1 0 0
1005 101 8 -0.358962 -12.64213634836933 2.7570516177989752 -5.028012191801849 1 0 0
849 85 9 -0.358962 -14.440599639570136 0.9726321783045044 -3.316847524089507 1 0 0
1004 101 4 0.404798 -13.658531165653077 2.6732723295164575 -5.530744026732824 1 0 0
847 85 5 0.404798 -13.776227478507238 0.7330530589319046 -2.421823134480581 1 0 0
846 85 2 -0.091672 -12.874595320639495 0.44567779123588736 -1.3555377882279576 1 0 0
596 60 2 -0.091672 -14.628187726619105 -4.250137776933174 -5.384512507943883 0 -1 1
28 3 6 0.404798 -9.751422879297309 0.6542579075686454 -5.602386687042188 0 0 0
593 60 7 -0.358962 -13.753411333843754 -2.2872129774370205 -2.635644903178461 0 -1 1
591 60 1 -0.091672 -14.296308923372418 -4.325598059329648 -4.08431317378623 0 -1 1
592 60 3 0.404798 -13.93090968593698 -3.2234330097612673 -3.3234536838161954 0 -1 1
684 69 4 0.404798 -10.455332209340803 -4.319042023627544 -1.2668438018333514 0 0 0
30 3 10 -0.358962 -9.630192701261533 1.7090993700778085 -5.132613098367919 0 0 0
153 16 7 -0.358962 -7.932652656594662 -3.7050022850319717 -5.445227025738582 0 0 0
681 69 1 -0.091672 -9.235506023219866 -4.013460645245848 -0.5106192830547673 0 0 0