LAMMPS data file via write_data, version 29 Sep 2021, timestep = 2000000

1800 atoms
20 atom types
1620 bonds
9 bond types
1800 angles
10 angle types
2160 dihedrals
12 dihedral types

0 31.264 xlo xhi
0 31.264 ylo yhi
0 31.264 zlo zhi
3.552713678800501e-15 3.552713678800501e-15 3.552713678800501e-15 xy xz yz

Masses

1 12.01
2 12.01
3 12.01
4 12.01
5 12.01
6 12.01
7 14.01
8 14.01
9 14.01
10 14.01
11 0.0001
12 0.0001
13 0.0001
14 0.0001
15 0.0001
16 0.0001
17 0.0001
18 0.0001
19 0.0001
20 0.0001

Bond Coeffs # harmonic

1 400 1.426
2 400 1.426
3 400 1.426
4 400 1.426
5 549 1.34
6 650 1.16
7 650 1.16
8 650 1.16
9 650 1.16

Angle Coeffs # harmonic

1 70 116.8
2 70 116.8
3 70 121.6
4 70 121.6
5 70 121.6
6 70 121.6
7 70 178.9
8 70 178.9
9 70 178.9
10 70 178.9

Dihedral Coeffs # opls

1 0 0 0 0
2 0 0 0 0
3 0 0 0 0
4 0 0 0 0
5 0 0 0 0
6 0 0 0 0
7 0 0 0 0
8 0 0 0 0
9 0 14 0 0
10 0 14 0 0
11 0 14 0 0
12 0 14 0 0

Atoms # full

1258 126 6 0.404798 3.291897756381076 2.0562637685307883 6.302508699686469 1 0 1
909 91 9 -0.358962 5.9643748673910215 15.261670254005724 0.9763788574481469 1 -1 -1
1644 165 4 0.404798 4.734598952066962 11.04726062713014 0.11655912153724513 3 -2 -1
1260 126 10 -0.358962 3.263468322701958 1.5121572631361226 7.325679426103384 1 0 1
1257 126 5 0.404798 3.6750726459172953 4.1340845808546876 4.97846379714677 1 0 1
395 40 8 -0.358962 7.681642396803984 11.439176303327086 7.434497445371454 1 1 2
394 40 4 0.404798 6.719829946823265 10.784858775752097 7.293846688140693 1 1 2
32 4 3 0.404798 7.13558908025254 4.403247440711014 6.119724538584975 -1 0 -2
1506 151 2 -0.091672 5.4374804099199014 3.789365845423426 1.2943097104497918 0 3 -2
1650 165 10 -0.358962 0.30772899476776605 9.0370282864432 0.49053999631997475 3 -2 -1
903 91 7 -0.358962 8.95151552952134 10.253369891037547 2.2069809588156044 1 -1 -1
1167 117 5 0.404798 2.288323685127179 14.058978261519032 2.154384266604997 -1 -2 4
393 40 7 -0.358962 5.421998514090524 8.124998332764012 5.461044886928249 1 1 2
1161 117 1 -0.091672 1.532140785922218 15.557668529984948 0.4105205225059014 -1 -2 4
391 40 1 -0.091672 5.430797270876659 10.13964822738083 7.092408974742852 1 1 2
33 4 7 -0.358962 7.3117957537820235 3.478812961306953 5.398587187955489 -1 0 -2
34 4 4 0.404798 7.665248033051925 6.779972927045138 6.448184416432914 -1 0 -2
1142 115 3 0.404798 9.971820674823588 12.81689466536432 4.721472194719517 0 -1 5
1643 165 7 -0.358962 3.0465730445514443 10.190023098323902 3.064112982024233 3 -2 -1
1169 117 9 -0.358962 2.6282583472531185 13.837087475949648 3.2550508493422394 -1 -2 4
1166 117 2 -0.091672 1.65782146192148 14.241880433515615 0.8767114465725908 -1 -2 4
1362 137 3 0.404798 4.2400788349624055 7.533877038352744 2.5700790271391263 1 -1 -2
529 53 9 -0.358962 2.7068518778658532 12.136542217520443 5.113943290396289 3 -2 -3
1168 117 6 0.404798 0.9359056934814819 13.143077509855953 0.34229326917052716 -1 -2 4
1337 134 5 0.404798 9.996066236434087 1.3245635958287325 5.383881448462749 1 2 2
526 53 2 -0.091672 3.8538485995600547 14.193028779811815 5.959890658377556 3 -2 -3
528 53 6 0.404798 5.254078961477439 14.36652046940786 5.793279690772734 3 -2 -3
1143 115 7 -0.358962 9.33541125124207 13.674497402798803 4.35120968522572 0 -1 5
1335 134 8 -0.358962 6.72841025423232 0.5927942169829727 6.556794354906424 1 2 2
1364 137 4 0.404798 2.3858613137529012 7.16334645066499 3.988793298520501 1 -1 -2
1642 165 3 0.404798 3.289113101420195 10.452536985765867 1.919428896440782 3 -2 -1
1255 126 8 -0.358962 2.418204003146109 3.411585531381419 1.7337605574897372 1 0 1
527 53 5 0.404798 3.2729967965734024 13.041500424364978 5.487118909251542 3 -2 -3
31 4 1 -0.091672 6.90232367670634 5.602622374569003 6.869400369174585 -1 0 -2
1508 151 6 0.404798 5.181183535195559 2.500002298432978 1.8621609502086558 0 3 -2
1252 126 3 0.404798 2.558420683149863 0.6569188389188706 3.9950681221735374 1 0 1
1259 126 9 -0.358962 3.9666665768059404 5.2297105607299095 5.013656911293471 1 0 1
35 4 8 -0.358962 8.268206052034461 7.763420590104998 6.176162330921434 -1 0 -2
1334 134 4 0.404798 7.692476720731633 1.1165553273610462 7.045667991113812 1 2 2
907 91 5 0.404798 6.69054172117577 14.350146341573415 0.9171836330645369 1 -1 -1
695 70 8 -0.358962 7.642016072427737 0.21870811352314787 2.616427223450269 1 -1 4
1199 120 9 -0.358962 9.610580588922172 4.909786423511904 5.200229680926588 -4 1 2
904 91 4 0.404798 6.458671180956775 12.515348144271575 2.8204235781685343 1 -1 -1
1363 137 7 -0.358962 5.399100895044138 7.645121023119907 2.44558300383841 1 -1 -2
902 91 3 0.404798 8.24043846289634 11.159019278210705 1.989242007125658 1 -1 -1
1195 120 8 -0.358962 9.782674770524947 2.762148021192829 1.7363503677948477 -4 1 2
1365 137 8 -0.358962 1.9134304026240057 7.220274263742787 5.071740098088495 1 -1 -2
396 40 2 -0.091672 4.247842302298381 10.624541814794913 7.62756028380407 1 1 2
1509 151 9 -0.358962 6.9520127718589455 5.513482303413241 2.4191452455590925 0 3 -2
1366 137 2 -0.091672 2.1223829817853335 7.141502791563712 1.567989843030425 1 -1 -2
1510 151 10 -0.358962 4.909551586869032 1.4419798716626644 2.2898990509985024 0 3 -2
905 91 8 -0.358962 5.6991325036679825 12.58742719848545 3.6492783618288485 1 -1 -1
1331 134 1 -0.091672 8.84853487174399 1.7816790878776647 7.512222093143317 1 2 2
530 53 10 -0.358962 6.3946965004854786 14.510359382404475 5.75781997560543 3 -2 -3
1367 137 5 0.404798 0.803688466707171 6.661066787868574 1.6311879563126908 1 -1 -2
392 40 3 0.404798 5.510163070401985 8.98035928807826 6.236549299628626 1 1 2
1256 126 2 -0.091672 3.279773530301298 2.739335632388974 5.036361824953819 1 0 1
1380 138 10 -0.358962 0.5597334446549923 4.876990961714037 3.9879947300893592 -2 4 -2
1501 151 1 -0.091672 5.050766481622649 4.044567836345719 0.054553211339303964 0 3 -2
398 40 6 0.404798 3.0993962613761425 9.95846842832682 7.226705596733715 1 1 2
1361 137 1 -0.091672 2.8673539818814233 7.28500850810913 2.6752067331651355 1 -1 -2
1507 151 5 0.404798 6.315806025615369 4.708292940177697 1.9777341595013924 0 3 -2
901 91 1 -0.091672 7.474770999273104 12.311343101569118 1.8445742359218926 1 -1 -1
1251 126 1 -0.091672 2.881811967441733 2.0653171869780307 3.930511220542293 1 0 1
1368 137 6 0.404798 2.7027938029304153 6.925684290700252 0.2673577089650497 1 -1 -2
906 91 2 -0.091672 7.598582654083256 13.23419210442578 0.8896007497834899 1 -1 -1
1254 126 4 0.404798 2.7234102840510013 2.8295703487797086 2.6952527107028845 1 0 1
959 96 9 -0.358962 9.655502645483201 7.718850874059747 1.9785015047409433 8 1 4
1336 134 2 -0.091672 9.932585644083682 1.8954234888674257 6.70095965487254 1 2 2
525 53 8 -0.358962 0.5417316194471191 14.515332466619524 6.844106810506406 3 -2 -3
1639 164 9 -0.358962 0.4868158884477433 9.471380229117695 3.894961201164157 2 -2 0
524 53 4 0.404798 1.6595939828079882 14.823043618890756 6.718375536018144 3 -2 -3
521 53 1 -0.091672 3.045629223074147 15.041576401103187 6.549887094888567 3 -2 -3
400 40 10 -0.358962 2.107604469852837 9.432528659836498 6.864826762443054 1 1 2
1339 134 9 -0.358962 10.030417999536551 0.9838884885475968 4.2922411561312925 1 2 2
1641 165 1 -0.091672 3.4545827034764436 10.612327091076446 0.5311873613754037 3 -2 -1
419 42 9 -0.358962 0.41808258781401453 0.35289941934781044 7.114153647944506 3 0 -1
1648 165 6 0.404798 1.3853109237743233 9.379606158052951 0.10867124133230188 3 -2 -1
506 51 2 -0.091672 0.9603215286124106 8.435889834474533 11.922107218807248 1 -1 0
38 4 6 0.404798 5.2245170775370235 4.560517174954061 8.248615360702304 -1 0 -2
1489 149 9 -0.358962 2.3291447619530175 12.567938270720093 14.246511615815955 1 -1 0
943 95 7 -0.358962 6.322269390769295 14.056353479025853 10.073237096380796 -1 1 0
1235 124 8 -0.358962 0.4222202359852111 2.638009368839148 14.505500140751115 -4 4 0
1759 176 9 -0.358962 7.369536733958639 14.997413019105002 12.684092727133795 -2 0 -1
409 41 9 -0.358962 7.211835826450741 0.32280802820325777 9.302052739017505 1 -3 1
948 95 6 0.404798 8.854758956829144 11.520799172122185 10.711913699407052 -1 1 0
1008 101 6 0.404798 0.18391817300884453 1.5753448512630697 11.039335603798657 -2 -2 1
40 4 10 -0.358962 4.654784632390933 3.6583057421988583 8.710003763704279 -1 0 -2
378 38 6 0.404798 5.790361212707322 12.481620422890948 14.976397499680425 0 0 -1
115 12 8 -0.358962 1.0924903755218087 14.005001930971712 9.52931356543629 -1 -1 -1
945 95 8 -0.358962 4.133063500144444 10.652454380565754 11.312266513596208 -1 1 0
380 38 10 -0.358962 6.3338341722180225 12.414294989546903 13.966425616672462 0 0 -1
1332 134 3 0.404798 8.832964703212363 2.225249405092187 8.803404099959051 1 2 2
448 45 6 0.404798 4.634211305251105 2.7865279891619967 13.317174581269608 0 2 4
941 95 1 -0.091672 6.4533358058961 11.669020199853286 10.966312675431283 -1 1 0
510 51 10 -0.358962 2.5039952020623852 8.529357213614913 9.850180695772716 1 -1 0
1120 112 10 -0.358962 10.033035524835158 7.433947416443712 14.117303570878306 3 1 -3
1001 101 1 -0.091672 2.507373309307742 1.0170877830781366 10.580643664566313 -2 -2 1
441 45 1 -0.091672 5.970078813175547 4.7344234931487525 12.702699242703401 0 2 4
1333 134 7 -0.358962 8.881882576760054 2.610292929940185 9.899213167186875 1 2 2
1487 149 5 0.404798 1.8524869958385117 13.543619986734447 14.502235252748674 1 -1 0
503 51 7 -0.358962 1.3940471713207185 4.959858349673574 11.589793361487086 1 -1 0
946 95 2 -0.091672 7.648966653407629 10.974519850758009 11.129321939274172 -1 1 0
445 45 8 -0.358962 8.166200453677426 5.7000259093513765 11.813426457811802 0 2 4
37 4 5 0.404798 5.877822575576319 6.860054977949702 8.63725535327332 -1 0 -2
450 45 10 -0.358962 3.6824332068376178 2.3003024495848665 13.690848290451914 0 2 4
399 40 9 -0.358962 4.217766051920269 12.866306473285125 8.964293791807128 1 1 2
501 51 1 -0.091672 0.5096802106895418 7.25444864069615 12.453711509597847 1 -1 0
1006 101 2 -0.091672 1.4695763771495864 1.8402994433262347 10.328603095660894 -2 -2 1
444 45 4 0.404798 7.2429392251412015 5.24887033493238 12.282212553721674 0 2 4
397 40 5 0.404798 4.1408039688141 11.85337941419127 8.349722682216102 1 1 2
949 95 9 -0.358962 8.044616299049645 8.619117499509706 12.05076693893752 -1 1 0
1005 101 8 -0.358962 4.927667478987351 1.5353387863729098 9.949393970975477 -2 -2 1
947 95 5 0.404798 7.793821151464586 9.644846628631301 11.56053467756355 -1 1 0
442 45 3 0.404798 4.8036971936726784 5.552068633066829 12.767976661533151 0 2 4
502 51 3 0.404798 0.9811867918539241 5.989826819591452 11.99468257556269 1 -1 0
508 51 6 0.404798 1.8565382487526867 8.468102726269304 10.824515817229413 1 -1 0
1007 101 5 0.404798 1.6966209570843664 3.0605574160326237 9.628338565133367 -2 -2 1
835 84 8 -0.358962 8.435627919373406 11.280813797687859 15.04826145684257 1 -1 2
373 38 7 -0.358962 3.8455810951989218 9.339927560491883 14.643372706034613 0 0 -1
1009 101 9 -0.358962 2.013959126307947 3.9566660111599137 9.051356944379595 -2 -2 1
950 95 10 -0.358962 9.893426916459886 11.994768288062195 10.444768657242257 -1 1 0
443 45 7 -0.358962 3.788035003353065 6.086581221616945 12.734471878830822 0 2 4
372 38 3 0.404798 3.950941997035174 10.258712865166622 15.361285849518472 0 0 -1
447 45 5 0.404798 7.02735773630802 2.5852436907236513 12.842476316779152 0 2 4
1486 149 2 -0.091672 1.028490255354601 14.772309003394762 14.724578413479646 1 -1 0
449 45 9 -0.358962 7.923495972401133 1.8771501610175534 12.863493118751698 0 2 4
446 45 2 -0.091672 5.8710862524081895 3.42466123692815 12.990952090115924 0 2 4
1004 101 4 0.404798 3.854340773080191 1.2960302755567514 10.204239851766129 -2 -2 1
39 4 9 -0.358962 5.829082199961723 7.798249201192395 9.307411005592014 -1 0 -2
942 95 3 0.404798 6.436451399973495 12.975824985050918 10.446117688772969 -1 1 0
507 51 5 0.404798 0.4756688844678957 9.696189418073287 12.332484996137625 1 -1 0
114 12 4 0.404798 0.20441174722982647 13.308076231010638 9.571135818566882 -1 -1 -1
944 95 4 0.404798 5.146048185193147 11.123660897983218 11.171120099030015 -1 1 0
834 84 4 0.404798 9.341828328678373 12.058506054807637 15.02297606107071 1 -1 2
509 51 9 -0.358962 0.01714126177886347 10.75260634755284 12.700754964262124 1 -1 0
836 84 2 -0.091672 10.393474428940081 14.207494184321328 15.422992877596814 1 -1 2
1091 110 1 -0.091672 9.216738154423416 0.2569224004523576 15.549319385123084 -2 0 -1
36 4 2 -0.091672 5.973320640842411 5.6918132014114144 7.819022842815343 -1 0 -2
377 38 5 0.404798 4.970116134233337 13.418709662935413 16.95132340940418 0 0 -1
1578 158 6 0.404798 10.244128129394158 5.926351539292989 17.21271204313715 -1 1 1
1468 147 6 0.404798 4.38113687056954 6.505091184225131 20.154257365822048 5 3 -2
1464 147 4 0.404798 6.4119477968533864 7.216093305430539 17.1218233151871 5 3 -2
1788 179 6 0.404798 4.415691590387695 12.657346172795446 23.130962711658114 1 -1 -5
703 71 7 -0.358962 6.257165049866297 2.310348769547777 20.712755807672508 1 0 -4
463 47 7 -0.358962 7.1460343849787575 10.21851916773878 21.814523744258782 2 3 0
434 44 4 0.404798 8.991625422454655 1.0917612642444405 20.914595873768935 1 0 -3
839 84 9 -0.358962 8.247998391682449 15.435147102881162 16.06626751388599 1 -1 2
701 71 1 -0.091672 5.2392910859212565 0.0451899508648846 21.548698235367773 1 0 -4
376 38 2 -0.091672 4.9220522276160885 12.396078306556733 16.06572396245124 0 0 -1
474 48 4 0.404798 1.1562219094688067 0.3179499297897386 19.062160883052655 0 3 2
468 47 6 0.404798 7.000752538449619 10.102702696211828 18.29086877710819 2 3 0
1462 147 3 0.404798 7.15524058425056 6.842490224061853 19.2926511011423 5 3 -2
1467 147 5 0.404798 3.732050933716707 7.441537445640975 18.051654623981452 5 3 -2
1466 147 2 -0.091672 4.728403120008316 6.866680694077722 18.821196808966697 5 3 -2
1015 102 8 -0.358962 1.2254173697259585 7.839652765590462 20.393234268156878 1 4 0
1470 147 10 -0.358962 4.154277810916648 6.255364231761782 21.278166469794904 5 3 -2
766 77 2 -0.091672 9.048352653670547 12.953607599696875 20.842467855116485 1 -4 -1
768 77 6 0.404798 9.060008229313171 12.897286590074607 19.388111458849 1 -4 -1
1784 179 4 0.404798 1.0917038798456233 12.194744747128194 21.717726074525945 1 -1 -5
477 48 5 0.404798 0.7617309999836349 0.8991392873434029 21.90370757055301 0 3 2
1787 179 5 0.404798 3.74284167226138 11.471746045123737 21.194091315489096 1 -1 -5
476 48 2 -0.091672 0.10617600862979233 1.628736537487273 20.81181402230724 0 3 2
1095 110 8 -0.358962 7.543613398464375 2.3016955905084786 15.847313386650859 -2 0 -1
462 47 3 0.404798 7.906642975803846 10.045378319670723 20.983072274464597 2 3 0
479 48 9 -0.358962 1.388005691558469 0.2534362185713129 22.647757187548642 0 3 2
431 44 1 -0.091672 9.653669138101549 2.346205953408251 21.09799609852987 1 0 -3
1781 179 1 -0.091672 2.095629913853591 12.428989744841129 22.70406971800009 1 -1 -5
1785 179 8 -0.358962 0.33991864196774924 11.978674532329723 20.842891998458732 1 -1 -5
1789 179 9 -0.358962 4.086668466993343 10.784268812886266 20.270602760699006 1 -1 -5
467 47 5 0.404798 9.015725607138293 9.309773826880951 17.564124811492828 2 3 0
486 49 2 -0.091672 2.437733058549982 3.6672154676983726 18.730190595084736 -1 -1 1
763 77 7 -0.358962 6.3250207079477745 14.960348104967478 20.239078408693285 1 -4 -1
484 49 4 0.404798 2.186834335597311 4.528516565308957 16.49217612393622 -1 -1 1
379 38 9 -0.358962 4.987957791143577 14.354920482192917 17.725456496046924 0 0 -1
459 46 9 -0.358962 0.4945878520876851 8.607726270895137 16.15014529875192 1 -2 -3
1461 147 1 -0.091672 6.064460237501871 6.905268251513394 18.44153216480764 5 3 -2
702 71 3 0.404798 5.836914579049918 1.2748949989619207 21.14721273675661 1 0 -4
466 47 2 -0.091672 8.261981669398375 9.665840230704953 18.697598707292098 2 3 0
482 49 3 0.404798 4.031038277857343 3.0589107648749465 16.985152590770735 -1 -1 1
374 38 4 0.404798 3.1523169708736343 11.57343487482062 17.32375450884366 0 0 -1
488 49 6 0.404798 3.1468724359495392 2.8498380224918565 19.659298522972428 -1 -1 1
439 44 9 -0.358962 8.310517374743991 3.045076472787218 17.965520841205585 1 0 -3
437 44 5 0.404798 8.87966301629148 3.159430471947267 18.984667779479484 1 0 -3
1469 147 9 -0.358962 2.92587837877149 7.937881867758969 17.339619325320864 5 3 -2
461 47 1 -0.091672 8.704424957194844 9.709558161709712 19.923923339258717 2 3 0
481 49 1 -0.091672 2.84384010494254 3.695785424643947 17.468779981369668 -1 -1 1
1016 102 2 -0.091672 0.8016789424583287 5.471385504827747 22.963230851141443 1 4 0
375 38 8 -0.358962 2.4261177569682473 11.518150067570025 18.1904008859672 0 0 -1
1786 179 2 -0.091672 3.3507005278098454 12.218935783489446 22.332920395055133 1 -1 -5
1019 102 9 -0.358962 2.870607947195974 4.132353746551174 22.179434576729978 1 4 0
762 77 3 0.404798 7.043075997803453 14.320094920022497 20.865278658813363 1 -4 -1
837 84 5 0.404798 9.172766056038508 14.78140353730003 15.781001468908041 1 -1 2
483 49 7 -0.358962 5.000158670808507 2.59502832650166 16.557307722922783 -1 -1 1
761 77 1 -0.091672 8.017790129850928 13.511399586300923 21.48810873146837 1 -4 -1
1014 102 4 0.404798 0.7952136903823405 7.190452216595048 21.29439204893344 1 4 0
1580 158 10 -0.358962 9.094590595325903 5.939564621209291 17.430442826176694 -1 1 1
371 38 1 -0.091672 3.991648195633703 11.467104871994572 16.212888819123414 0 0 -1
470 47 10 -0.358962 5.977689205289982 10.43226845022428 17.89495436881548 2 3 0
436 44 2 -0.091672 9.63347649446183 3.3037923618458684 20.154923377458704 1 0 -3
490 49 10 -0.358962 3.6524883618492163 2.2468175110227957 20.503595210569486 -1 -1 1
469 47 9 -0.358962 9.63145308037477 9.013802168860513 16.60239251504677 2 3 0
770 77 10 -0.358962 8.995883362623173 12.877910221957269 18.22839498997225 1 -4 -1
1463 147 7 -0.358962 8.050402370679464 6.78334753585608 20.04231108718662 5 3 -2
489 49 9 -0.358962 0.19001086605762918 4.843923332905067 19.23419777131328 -1 -1 1
1017 102 5 0.404798 1.992232183508315 4.7859215481831505 22.53180378641687 1 4 0
280 28 10 -0.358962 0.8988559574211292 14.908991764502417 17.940058738540333 1 -2 -2
464 47 4 0.404798 9.99009316614883 9.167313072288309 20.21006310347711 2 3 0
487 49 5 0.404798 1.1659314632329887 4.2835579616976815 18.99930860892384 -1 -1 1
435 44 8 -0.358962 8.539166077040452 0.08423021862883089 20.803940065238105 1 0 -3
729 73 9 -0.358962 2.6565226590466073 8.525638911164211 22.55179472086346 0 5 -3
471 48 1 -0.091672 0.2396964294166907 1.3287111786068946 19.47003522725911 0 3 2
767 77 5 0.404798 10.0270729823535 12.263978579838527 21.570517695051553 1 -4 -1
1011 102 1 -0.091672 0.322707460312507 6.644366324868793 22.427314119936707 1 4 0
764 77 4 0.404798 7.906670974071181 13.42548538860541 22.885992713011063 1 -4 -1
133 14 7 -0.358962 8.148259038394311 5.198461285049721 21.984790326582548 -1 -3 -4
1465 147 8 -0.358962 6.7475975143673 7.56450146435985 16.04524948842066 5 3 -2
725 73 8 -0.358962 5.201047284964002 5.015806217220352 23.422296767840407 0 5 -3
727 73 5 0.404798 3.664976815312843 8.497529182702399 23.140241727354915 0 5 -3
132 14 3 0.404798 8.783842748421334 5.00407142250195 22.949024285508568 -1 -3 -4
1094 110 4 0.404798 8.279999367902251 1.4040325498967339 15.738417056175589 -2 0 -1
485 49 8 -0.358962 1.7109252102386243 5.334501297169696 15.733206065291268 -1 -1 1
765 77 8 -0.358962 7.911283388697547 13.31527221329278 24.01923080318557 1 -4 -1
1455 146 8 -0.358962 8.566224367957743 10.636730902888942 25.95831119552791 -3 2 -3
795 80 8 -0.358962 2.4198769361208985 2.087624299390569 24.36595376641006 -1 2 0
1018 102 6 0.404798 0.38431711571215704 4.98373531759693 24.242837832726014 1 4 0
1456 146 2 -0.091672 8.653603782021847 9.18020376747682 29.162549284089227 -3 2 -3
1558 156 6 0.404798 5.977424057160354 13.043130018254859 28.017334528871157 2 0 1
1645 165 8 -0.358962 5.787430552592227 11.401540799775677 31.119193099643518 3 -2 -2
1457 146 5 0.404798 9.922179966609729 9.858172543284391 29.309322184600653 -3 2 -3
930 93 10 -0.358962 5.60999824276352 2.3773602541264225 24.66586573436657 3 6 -2
1502 151 3 0.404798 4.030627344698444 3.2155664082087436 30.737000582108603 0 3 -3
955 96 8 -0.358962 9.128954392060328 5.255795476395769 30.11144667652664 8 1 3
791 80 1 -0.091672 2.4690337850811512 3.610537069048466 26.47699490818749 -1 2 0
1178 118 6 0.404798 1.999659052821647 0.08768930567280891 29.738667149357727 -2 4 -2
1560 156 10 -0.358962 6.604407674118286 12.263535084804873 27.354976014395753 2 0 1
794 80 4 0.404798 2.3910350056556195 2.7257253217105792 25.313386502854446 -1 2 0
1551 156 1 -0.091672 5.67261079844273 15.11748902134841 29.035199990871337 2 0 1
243 25 7 -0.358962 0.863305534025427 14.086778094873422 27.527888277692703 -3 1 0
800 80 10 -0.358962 1.6657148297985158 4.80755760288099 29.660678194408675 -1 2 0
1647 165 5 0.404798 2.9128441232869258 10.134133784611592 29.518777231034925 3 -2 -2
135 14 8 -0.358962 8.761138681442166 2.5557993407971584 25.25622912073502 -1 -3 -4
77 8 5 0.404798 0.14984791529886085 10.683425819146677 25.080826065821515 0 -1 2
927 93 5 0.404798 5.534552833393148 0.5126474420169476 27.519472850269107 3 6 -2
1451 146 1 -0.091672 7.929869831015068 9.225765259113343 28.05744535666961 -3 2 -3
723 73 7 -0.358962 8.225015130182948 7.896330928697354 24.500735484881986 0 5 -3
910 91 10 -0.358962 9.00612242499812 12.844863909792002 30.00815374541788 1 -1 -2
923 93 7 -0.358962 7.1468615621310105 5.177415370644802 27.488736267286335 3 6 -2
1291 130 1 -0.091672 10.043803885586959 0.24394235759183502 30.528660188056246 4 2 3
71 8 1 -0.091672 0.356714727321897 9.031886038721321 26.788691981295603 0 -1 2
908 91 6 0.404798 8.400213990794143 13.067821758820035 30.980455052607237 1 -1 -2
724 73 4 0.404798 5.38825874145379 6.192247752770884 23.599819013784554 0 5 -3
1790 179 10 -0.358962 5.225416712598068 13.219312285314086 23.706169552484972 1 -1 -5
1557 156 5 0.404798 3.9151080617241125 13.475675952280007 29.073950002958615 2 0 1
798 80 6 0.404798 1.6256066732049137 4.196468313198298 28.659689161116013 -1 2 0
1646 165 2 -0.091672 2.632037089173989 10.067799214854833 30.92216735193822 3 -2 -2
722 73 3 0.404798 7.145794771243973 7.662989419229297 24.319202061808998 0 5 -3
1503 151 7 -0.358962 3.23754660220485 2.453836730677213 30.34734388531128 0 3 -3
1556 156 2 -0.091672 5.177599979334358 13.954418814877537 28.68113110422381 2 0 1
1552 156 3 0.404798 6.889212356552588 15.504504402444283 28.49151461767081 2 0 1
79 8 9 -0.358962 0.14471827008707025 11.169102564956557 23.99813857652573 0 -1 2
1782 179 3 0.404798 1.8513943237899169 13.096485207360733 23.94600312289662 1 -1 -5
924 93 4 0.404798 6.61674270827422 2.243687524257053 29.38751497958579 3 6 -2
1453 146 7 -0.358962 5.643463087938733 8.088839700990809 27.821989624603425 -3 2 -3
1458 146 6 0.404798 8.335112102557678 8.172521498237744 30.136152938388836 -3 2 -3
792 80 3 0.404798 3.443192333395103 4.685398161187692 26.521399690592425 -1 2 0
1180 118 10 -0.358962 2.3991307695534716 0.5719823578359363 28.777258519992124 -2 4 -2
721 73 1 -0.091672 5.745883138435517 7.5279936793421856 23.966163327230685 0 5 -3
922 93 3 0.404798 6.779237743942312 4.106897737748138 27.723773791463312 3 6 -2
74 8 4 0.404798 0.7775479477887032 8.01778311753874 25.901586768706036 0 -1 2
926 93 2 -0.091672 5.981710654863129 1.8280992284188027 27.1360174847607 3 6 -2
1452 146 3 0.404798 6.687344403564199 8.546363376531588 27.905023852772327 -3 2 -3
1649 165 9 -0.358962 3.1096809194839925 10.124584565927064 28.38436598287771 3 -2 -2
928 93 6 0.404798 5.813161279418005 2.0691811035301915 25.7437388926645 3 6 -2
1170 117 10 -0.358962 0.4540636128290524 12.335986363319778 30.94123583868798 -1 -2 3
797 80 5 0.404798 0.41118485188078735 2.631244721347289 27.371626990373166 -1 2 0
925 93 8 -0.358962 6.723886753780331 1.7420035976173518 30.45273178508052 3 6 -2
793 80 7 -0.358962 4.29696578265681 5.428812896917591 26.392435430951178 -1 2 0
1505 151 8 -0.358962 5.936239581084261 6.1997965919879 30.056072969438272 0 3 -3
1783 179 7 -0.358962 1.6871987466806462 13.602379982508152 24.945070042048393 1 -1 -5
1559 156 9 -0.358962 2.9090468145813344 13.169671556105687 29.456578984445585 2 0 1
242 25 3 0.404798 1.0291013877676405 15.10764196489166 26.993970749385237 -3 1 0
921 93 1 -0.091672 6.500780929568683 2.716167266769949 28.00212638146782 3 6 -2
1454 146 4 0.404798 8.331176021416674 9.98274143602107 26.896661792942208 -3 2 -3
131 14 1 -0.091672 9.605473105504531 4.676506306525516 24.099812657856887 -1 -3 -4
75 8 8 -0.358962 1.1410991501822585 7.138613421981996 25.184623098361886 0 -1 2
1370 137 10 -0.358962 3.1462897002846093 6.8366306665395875 30.437758554199597 1 -1 -3
134 14 4 0.404798 9.20904725127089 3.4978485845608396 24.781375826606677 -1 -3 -4
728 73 6 0.404798 5.3346704178050715 9.887938621712735 24.28865397080429 0 5 -3
730 73 10 -0.358962 5.749155335972796 10.94775318778425 24.684121387097644 0 5 -3
726 73 2 -0.091672 4.976340857229705 8.588304455744572 23.779490952843737 0 5 -3
796 80 2 -0.091672 1.5391563620345172 3.4566119121094143 27.466859804694494 -1 2 0
1504 151 4 0.404798 5.491601332133521 5.246140673707531 30.610226801701682 0 3 -3
954 96 4 0.404798 10.143271146359401 5.715688505738001 30.4742577779722 8 1 3
265 27 8 -0.358962 10.071982826778736 9.31018664663928 24.389972932719793 -1 2 1
1460 146 10 -0.358962 8.167759838928083 7.456367052604683 31.015160286456794 -3 2 -3
76 8 2 -0.091672 0.15127896101913918 10.27463417462219 26.39939892492863 0 -1 2
1020 102 10 -0.358962 0.05065087293800815 4.657387948384752 25.301361578809207 1 4 0
518 52 6 0.404798 0.2407812830258026 26.012349583831032 2.814227077420928 0 1 -1
496 50 2 -0.091672 2.2400996059423095 27.104953143976342 7.268300333677165 0 3 -2
522 53 3 0.404798 3.625113291724053 16.128702911929974 7.360158791390959 3 -2 -3
339 34 9 -0.358962 8.008107477468288 21.019705622497927 6.47405211196927 0 1 2
1139 114 9 -0.358962 8.031136852843602 17.10247175034378 5.999695488305461 1 0 2
1710 171 10 -0.358962 6.194844787227389 25.318451469141223 0.689395035719821 3 -1 0
694 70 4 0.404798 6.974967638930556 30.589117614999733 2.9586558714247273 1 -2 4
410 41 10 -0.358962 7.676503409946671 28.84275904856084 5.882538842888963 1 -4 1
94 10 4 0.404798 9.203841733121939 21.452918165438657 2.370679832590502 2 1 -2
1707 171 5 0.404798 3.3440625068312726 23.94012070419226 2.12374717838394 3 -1 0
1132 114 3 0.404798 6.8803723516695525 18.02376700446599 1.3873995618118917 1 0 2
1412 142 3 0.404798 2.3443640582191483 19.519344692486257 6.592374384112374 3 -1 3
1747 175 5 0.404798 9.569659851128632 27.39241073724154 3.5345005147238053 1 1 2
1702 171 3 0.404798 5.9674682400587455 21.89057622696757 0.3808094412820584 3 -1 0
1749 175 9 -0.358962 9.328815125299089 28.488154194746294 3.263850930046113 1 1 2
519 52 9 -0.358962 0.25631633435882517 23.464708772094692 5.2135384692996585 0 1 -1
1293 130 7 -0.358962 10.054029694442422 30.270627765209728 1.6083904933586892 4 1 4
545 55 8 -0.358962 6.223327603871402 19.234224280078735 7.589915416567016 0 0 1
1165 117 8 -0.358962 2.6423588773558526 17.698971025753128 1.4244561940328735 -1 -2 4
692 70 3 0.404798 5.22712558648728 29.664891695980483 4.490987821384494 1 -2 4
1413 142 7 -0.358962 3.413780996676709 19.311757392996345 6.135696366113882 3 -1 3
500 50 10 -0.358962 2.585367492510132 26.267958737005625 4.839091953310535 0 3 -2
1748 175 6 0.404798 9.208920163510744 25.169989250857448 2.6999878653288043 1 1 2
743 75 7 -0.358962 2.1343859856369023 26.66371615339921 0.1692287889681527 -3 2 0
1131 114 1 -0.091672 6.867633812348904 17.962337542739835 2.852370366381779 1 0 2
643 65 7 -0.358962 0.09901868791782034 17.530128837255507 3.840861742802784 4 0 -1
1418 142 6 0.404798 0.2074900509906929 20.520526828592065 5.000782465893638 3 -1 3
1704 171 4 0.404798 3.985478404722707 21.313862072137304 1.5948501507824537 3 -1 0
700 70 10 -0.358962 4.883301693599178 26.20851050255511 3.4935688794461037 1 -2 4
785 79 8 -0.358962 7.290830173455369 24.69109739623666 4.875180129662071 -2 -1 3
1135 114 8 -0.358962 4.964753690132738 19.140723139168777 4.084312830833486 1 0 2
782 79 3 0.404798 4.49518698245134 22.83382045553329 5.345155110596453 -2 -1 3
1253 126 7 -0.358962 2.1771501389618324 30.82978979382192 3.9338663184745695 1 -1 1
697 70 5 0.404798 7.23723640845748 28.002160944488693 1.8073282066029273 1 -2 4
699 70 9 -0.358962 8.000271488431286 27.73506006389829 0.974724533063175 1 -2 4
1177 118 5 0.404798 2.6255213991864563 30.169145154850355 0.45913402873053205 -2 3 -1
1134 114 4 0.404798 5.879538704521842 18.716305762159347 3.500481105708232 1 0 2
691 70 1 -0.091672 6.182516050236551 29.53450440491507 3.4276042288782445 1 -2 4
1705 171 8 -0.358962 3.249225682222214 20.53605670680339 1.997566617533313 3 -1 0
696 70 2 -0.091672 6.259826335725887 28.29637254203928 2.849715120105862 1 -2 4
1179 118 9 -0.358962 3.499165507548686 29.720991040233656 1.0891820634840692 -2 3 -1
1136 114 2 -0.091672 7.820618951227467 17.128574746901254 3.4230223122033636 1 0 2
1411 142 1 -0.091672 1.03209090152025 19.72741583838499 7.15814074723704 3 -1 3
698 70 6 0.404798 5.444935947584408 27.196022671800005 3.209938361696818 1 -2 4
1708 171 6 0.404798 5.370804778109352 24.58175807536503 0.9567864882192915 3 -1 0
95 10 8 -0.358962 8.032677675187188 21.30013686178862 2.474017723540623 2 1 -2
408 41 6 0.404798 7.210854727906778 29.033455099092713 6.926266027458224 1 -4 1
1420 142 10 -0.358962 0.393901449833729 20.74103769296844 3.859118643848473 3 -1 3
498 50 6 0.404798 2.530875490574222 26.683398370103035 5.915325686163395 0 3 -2
1138 114 6 0.404798 8.755255061558294 16.5484523151601 2.550580245230898 1 0 2
784 79 4 0.404798 6.552857819102257 23.987691558446265 5.453762253429693 -2 -1 3
1709 171 9 -0.358962 2.5035583211090273 24.21987725746697 2.9206624836073525 3 -1 0
1164 117 4 0.404798 2.1171118280699033 16.720489976828194 1.0422247447083621 -1 -2 4
337 34 5 0.404798 8.943058834503686 21.461868518404582 7.003976710670996 0 1 2
1701 171 1 -0.091672 4.839742983112 22.29989381708762 1.0721611681492447 3 -1 0
520 52 10 -0.358962 0.5405892218538424 27.10143206505243 2.6219579629610434 0 1 -1