LAMMPS data file via write_data, version 29 Sep 2021, timestep = 5000000

1620 atoms
10 atom types
1458 bonds
9 bond types
1620 angles
10 angle types
1944 dihedrals
12 dihedral types

0 31.303 xlo xhi
0 31.303 ylo yhi
0 31.303 zlo zhi

Masses

1 12.01
2 12.01
3 12.01
4 12.01
5 12.01
6 12.01
7 14.01
8 14.01
9 14.01
10 14.01

Bond Coeffs # harmonic

1 400 1.426
2 400 1.426
3 400 1.426
4 400 1.426
5 549 1.34
6 650 1.16
7 650 1.16
8 650 1.16
9 650 1.16

Angle Coeffs # harmonic

1 70 116.8
2 70 116.8
3 70 121.6
4 70 121.6
5 70 121.6
6 70 121.6
7 70 178.9
8 70 178.9
9 70 178.9
10 70 178.9

Dihedral Coeffs # opls

1 0 0 0 0
2 0 0 0 0
3 0 0 0 0
4 0 0 0 0
5 0 0 0 0
6 0 0 0 0
7 0 0 0 0
8 0 0 0 0
9 0 14 0 0
10 0 14 0 0
11 0 14 0 0
12 0 14 0 0

Atoms # full

534 54 4 0.404798 3.1671001888134507 10.018049359907753 7.429607346227131 -1 0 1
156 16 2 -0.091672 7.64671725870983 5.673781479059107 2.978138770461419 -1 0 0
157 16 5 0.404798 6.304724466535387 5.440086832772378 2.511624293375365 -1 0 0
159 16 9 -0.358962 5.220953362050294 5.164659957171072 2.2031113673328115 -1 0 0
767 77 5 0.404798 3.7356998905416594 1.3258645873004298 4.383361293335855 1 -1 2
345 35 8 -0.358962 9.362171680642778 7.693719908849323 7.2290322782048735 0 1 0
761 77 1 -0.091672 1.6693638744708208 0.4166096915660483 3.5993838054331464 1 -1 2
158 16 6 0.404798 8.180022103644246 4.755222397095745 3.8919627663125405 -1 0 0
766 77 2 -0.091672 2.317232179940421 1.004937427100769 4.614143448900203 1 -1 2
769 77 9 -0.358962 4.819982190437377 1.6221601511986292 4.0967590794192565 1 -1 2
768 77 6 0.404798 1.6736155526692411 1.4739694906527496 5.796696283939204 1 -1 2
536 54 2 -0.091672 4.03428681000108 8.884381599106051 5.568267197813788 -1 0 1
538 54 6 0.404798 3.975777362866649 8.336542003561265 4.2300470652486855 -1 0 1
346 35 2 -0.091672 12.14906827504256 9.265556553509375 5.791711022567765 0 1 0
1607 161 5 0.404798 1.62354760101928 7.5689602182867475 1.3565850304248952 0 0 1
539 54 9 -0.358962 6.120378316896038 8.213086628103124 6.939869993895794 -1 0 1
540 54 10 -0.358962 3.9501597730939784 7.852694938475264 3.176085140226646 -1 0 1
350 35 10 -0.358962 14.528728608504558 9.267901868637477 4.79104111056466 0 1 0
537 54 5 0.404798 5.186662589574591 8.460861629008917 6.29769985444841 -1 0 1
1113 112 7 -0.358962 7.416171751055527 4.855190614184937 7.50334606870836 0 1 1
357 36 5 0.404798 7.470593297939826 1.9321515197290873 0.8717426485980804 0 0 0
1462 147 3 0.404798 1.6534539532226162 6.131517642779311 7.379381838591363 1 0 -1
1603 161 7 -0.358962 1.1607676870511285 3.703084463604092 4.077984283702838 0 0 1
1463 147 7 -0.358962 2.305563579539426 5.867398763876429 6.457105177265512 1 0 -1
359 36 9 -0.358962 7.991739104278715 2.365795852297717 1.8129969322054502 0 0 0
770 77 10 -0.358962 0.8703472592801664 1.7396593540432195 6.590276112855934 1 -1 2
160 16 10 -0.358962 8.50822276136153 3.8989164107767773 4.602331943886794 -1 0 0
1609 161 9 -0.358962 1.6771269634122687 8.613199200274064 0.854296079960129 0 0 1
649 65 9 -0.358962 7.809103421307256 0.12610205122716728 5.984793132980809 -1 1 2
155 16 8 -0.358962 6.988127345830541 8.78600041799404 1.5809653029167186 -1 0 0
154 16 4 0.404798 7.63327628357409 7.93236159817665 2.028942547541527 -1 0 0
1604 161 4 0.404798 0.5689070168186341 7.140635991306256 3.8698096661325656 0 0 1
1606 161 2 -0.091672 1.5215643182421617 6.219162321104814 1.8178625335443528 0 0 1
1610 161 10 -0.358962 2.232266629921006 4.427831683247176 0.12438090580778913 0 0 1
344 35 4 0.404798 10.434705056228609 7.931141236297306 6.8563349866488945 0 1 0
1602 161 3 0.404798 1.0914850071851443 4.778734455090905 3.649292082757401 0 0 1
585 59 8 -0.358962 15.018204221721357 1.684311396906312 5.562185435174267 1 1 0
587 59 5 0.404798 14.431480130365001 5.109586577417383 4.2735027385759246 1 1 0
882 89 3 0.404798 14.236022353173407 4.717264227431017 0.6060696753929689 2 1 0
643 65 7 -0.358962 12.0525569737337 2.2240215557120973 2.4895779348763174 -1 1 2
589 59 9 -0.358962 13.386083190552428 4.965879678543749 3.791741841409579 1 1 0
342 35 3 0.404798 12.665508535216496 7.110626770763263 6.679932791139705 0 1 0
343 35 7 -0.358962 13.492719362981429 6.313011357805092 6.838463206425854 0 1 0
646 65 2 -0.091672 9.627455427585883 0.40114194556806415 4.21237562975192 -1 1 2
642 65 3 0.404798 11.275417772921534 1.8215335620904547 3.2509307287654785 -1 1 2
644 65 4 0.404798 10.70830407751246 2.130188873478584 5.524057437989336 -1 1 2
645 65 8 -0.358962 10.90566125774796 2.833421185617306 6.4252313706796 -1 1 2
153 16 7 -0.358962 10.660715239763382 7.02969917582006 3.678320891723129 -1 0 0
762 77 3 0.404798 0.21178440944390345 0.3320232584882447 3.603675969650528 1 -1 2
641 65 1 -0.091672 10.527284296347451 1.3823496176665167 4.364492380122487 -1 1 2
885 89 8 -0.358962 12.249787881930942 7.398139352536679 1.3263419351996302 2 1 0
884 89 4 0.404798 13.240528870896448 6.810829988045728 1.188139181215855 2 1 0
151 16 1 -0.091672 8.228550639329347 6.86695821461907 2.7953843206671323 -1 0 0
341 35 1 -0.091672 11.774823329958812 8.172787283672813 6.470972416644902 0 1 0
531 54 1 -0.091672 3.0390451424053846 9.631516323009901 6.065141150117279 -1 0 1
1601 161 1 -0.091672 1.033486998275184 6.1123368471706705 3.0612324895010192 0 0 1
886 89 2 -0.091672 15.581708742118824 6.5576862395240285 1.2800651590211265 2 1 0
347 35 5 0.404798 11.265307137308632 10.273078070863097 5.4693680778896745 0 1 0
881 89 1 -0.091672 14.402398897989556 5.997645979806971 0.9780996056759216 2 1 0
647 65 5 0.404798 8.645215660553946 0.11903031675248571 5.180761850642834 -1 1 2
348 35 6 0.404798 13.466893102190197 9.327903229162938 5.254188162620295 0 1 0
152 16 3 0.404798 9.575751264240044 7.066141178184686 3.2695114649810364 -1 0 0
1608 161 6 0.404798 1.9417363987488445 5.179239617535816 0.9589935591191046 0 0 1
1115 112 8 -0.358962 4.227428436787186 1.7643147900097724 7.563908574886223 0 1 1
764 77 4 0.404798 2.3683138229370284 0.028239762976284055 2.4424188208343027 1 -1 2
1605 161 8 -0.358962 0.27624259701663084 7.990023798202139 4.603627004366645 0 0 1
532 54 3 0.404798 1.884919289248541 10.205546449760181 5.357208671871558 -1 0 1
584 59 4 0.404798 15.565302938153152 2.7062658297219087 5.518686815780534 1 1 0
883 89 7 -0.358962 14.068071487346558 3.615595955313156 0.2840145323084755 2 1 0
251 26 1 -0.091672 4.788827786957529 8.508952794661255 14.214516121735095 1 0 1
103 11 7 -0.358962 14.633538140810991 1.0983964984759542 9.732360747815985 0 1 1
122 13 3 0.404798 5.929395945855073 2.4252150845493747 11.769209677591984 0 1 1
121 13 1 -0.091672 4.570819645527035 2.651688229972547 12.094353027058071 0 1 1
125 13 8 -0.358962 4.082343075198168 4.70095552331556 13.547624763255476 0 1 1
124 13 4 0.404798 4.233147799107219 3.7933753684936997 12.841114893299968 0 1 1
126 13 2 -0.091672 3.6143200694253754 1.8117090643359526 11.675851461953089 0 1 1
254 26 4 0.404798 6.0625894555281326 8.418030186896546 13.666221646721795 1 0 1
127 13 5 0.404798 2.2247142565135873 2.0628569118742024 11.88455857581647 0 1 1
252 26 3 0.404798 3.697884879360605 8.427835803151408 13.295188476237906 1 0 1
1470 147 10 -0.358962 3.3615412010271393 4.156697920652692 9.460448446668705 1 0 -1
253 26 7 -0.358962 2.826335043530723 8.29897594934901 12.540605138272474 1 0 1
1468 147 6 0.404798 2.463710777956455 4.886843133251861 9.54037653745171 1 0 -1
1466 147 2 -0.091672 1.2635063954467762 5.629144649544027 9.692303666341338 1 0 -1
129 13 9 -0.358962 1.0991601031137885 2.1835771221457083 12.137845916259243 0 1 1
123 13 7 -0.358962 7.057960019580001 2.24373082254987 11.571708810796627 0 1 1
1067 107 5 0.404798 5.523610306500473 7.315351797837863 10.150567946231464 0 0 1
1066 107 2 -0.091672 6.958200583487485 7.323795471497148 10.331503086491237 0 0 1
255 26 8 -0.358962 7.106004268330481 8.248042726654468 13.18873888352371 1 0 1
1061 107 1 -0.091672 7.643797898611714 8.4631371567548 10.165802023551638 0 0 1
1068 107 6 0.404798 7.609040678977966 6.119830615897854 10.69239063529298 0 0 1
1070 107 10 -0.358962 8.046366415600188 5.093178522166002 11.009142394508537 0 0 1
1467 147 5 0.404798 0.5811896675335427 5.8685405669852955 10.939882050782137 1 0 -1
1116 112 2 -0.091672 7.5744206402161165 1.7950347276145588 8.819105721384666 0 1 1
1118 112 6 0.404798 8.83623667632887 2.328478786453662 9.099980872599478 0 1 1
128 13 6 0.404798 3.903954222636431 0.7306075941453577 10.798461208789329 0 1 1
1064 107 4 0.404798 6.981211569175225 9.665169620435211 9.998822268676179 0 0 1
1469 147 9 -0.358962 0.1694234853184759 6.1113473836308865 11.996808470199056 1 0 -1
1117 112 5 0.404798 7.307264961552389 0.42332111805260647 9.15203551676555 0 1 1
23 3 7 -0.358962 6.19314107286614 5.617699529992731 15.30452991469038 0 0 0
1284 129 4 0.404798 11.351757052085373 2.5194863208817986 11.940673391513814 1 -1 -1
551 56 1 -0.091672 10.455593323646866 10.26114776375605 13.900004288141103 0 2 -1
1069 107 9 -0.358962 4.376381585210871 7.428625963361408 10.021590337560776 0 0 1
847 85 5 0.404798 10.575519039838598 0.24992570010808965 15.373791857688225 3 -1 -1
1285 129 8 -0.358962 11.680243393524272 1.5747375032710857 11.353181780224963 1 -1 -1
1120 112 10 -0.358962 9.86626528732089 2.8482462328732416 9.22032558439436 0 1 1
1594 160 4 0.404798 14.169098947151662 2.7489959638373667 13.643687869242472 0 1 0
1592 160 3 0.404798 13.33571996137637 4.792489781871917 14.542961687516357 0 1 0
1289 129 9 -0.358962 12.301480737077673 5.305243990811105 9.819959884278697 1 -1 -1
1290 129 10 -0.358962 9.926355338558716 6.998959832745508 12.959723638062705 1 -1 -1
1129 113 9 -0.358962 15.332193499930993 4.317834383210067 9.720726299388518 0 1 1
102 11 3 0.404798 13.909709328123006 0.4866585831224149 9.063444781237964 0 1 1
866 87 2 -0.091672 15.276323384352041 10.134129650722889 10.356480973746802 -1 1 1
1288 129 6 0.404798 10.459599073092825 6.094408512970189 12.466734764800094 1 -1 -1
870 87 10 -0.358962 13.959056492144644 7.915843972667504 10.257061686815199 -1 1 1
1591 160 1 -0.091672 13.755138256774906 3.417043071049196 14.797315026799684 0 1 0
552 56 3 0.404798 11.704686367960125 9.835690828824955 13.298150675642384 0 2 -1
1062 107 3 0.404798 9.134713477863912 8.427471440418769 10.103993877390675 0 0 1
412 42 3 0.404798 1.84946150943507 1.2375508276198857 15.224522058440906 3 -1 0
849 85 9 -0.358962 11.348672008702636 0.7682910158222107 14.681598327213838 3 -1 -1
1281 129 1 -0.091672 10.824496002336002 3.664986638584079 12.587015245048885 1 -1 -1
1595 160 8 -0.358962 14.384989348525085 2.144531209530686 12.677450997512194 0 1 0
1283 129 7 -0.358962 9.638488994728888 3.3236883096976695 14.862383742581633 1 -1 -1
1286 129 2 -0.091672 11.061296341174511 4.863550175269448 12.036587188269525 1 -1 -1
1593 160 7 -0.358962 13.020370587267816 5.892299923284188 14.351722542252503 0 1 0
1287 129 5 0.404798 11.760927337344075 4.988232841079488 10.796128897437812 1 -1 -1
1063 107 7 -0.358962 10.28410613837175 8.44348882614119 9.948302023711971 0 0 1
868 87 6 0.404798 14.566064668807213 8.903537457148394 10.297094694236145 -1 1 1
1282 129 3 0.404798 10.174019311198698 3.5379844568404173 13.855962141113347 1 -1 -1
1461 147 1 -0.091672 0.9404335191940161 6.3095966272486566 8.584057749745723 1 0 -1
553 56 7 -0.358962 12.700474470259888 9.517562584087203 12.79535800287674 0 2 -1
554 56 4 0.404798 10.147332942405605 9.785945758266813 15.20634781453934 0 2 -1
1111 112 1 -0.091672 6.613045696893015 2.5938510092574742 8.336145305735755 0 1 1
413 42 7 -0.358962 1.2248811323830116 0.3512124668679332 14.812328352455465 3 -1 0
415 42 8 -0.358962 5.1240730634071925 2.2026262491865123 15.426914961046622 3 -1 0
256 26 2 -0.091672 4.671607739130192 8.610618717165258 15.545502030081341 1 0 1
1112 112 3 0.404798 7.0196807071372636 3.836687419247249 7.891992556750708 0 1 1
961 97 1 -0.091672 0.08795924519951726 10.303267872870808 14.07945666777241 0 0 0
414 42 4 0.404798 3.9864238454401466 2.324553173384526 15.617933490824113 3 -1 0
1114 112 4 0.404798 5.249871839612909 2.179053607184386 7.92196052430308 0 1 1
758 76 6 0.404798 0.7023828433549019 1.3152009899379378 23.43020611649933 1 1 0
511 52 1 -0.091672 2.7127018680134243 7.383423841657095 20.42210683234854 -1 0 1
512 52 3 0.404798 1.7590596678017152 6.508564748710852 19.840493918987285 -1 0 1
1581 159 1 -0.091672 7.60566223453565 9.138135818128378 23.264789764358135 0 0 -1
514 52 4 0.404798 3.7435146873991005 6.582240457815451 21.0713283950005 -1 0 1
515 52 8 -0.358962 4.579507128710548 5.9152789497637634 21.520637847023508 -1 0 1
513 52 7 -0.358962 0.9790896653040239 5.864207139244227 19.272999371020013 -1 0 1
25 3 8 -0.358962 5.554830176521594 3.992373872420007 19.21842961680167 0 0 0
516 52 2 -0.091672 2.7202862036737794 8.723400141282125 20.41965901696519 -1 0 1
259 26 9 -0.358962 6.685089726125274 8.71173418055908 17.157735040933215 1 0 1
419 42 9 -0.358962 3.220485614228004 5.552002014197243 16.965146756275104 3 -1 0
755 76 8 -0.358962 0.5585621696794525 1.3133913162925976 18.484768351925077 1 1 0
416 42 2 -0.091672 1.862612537162111 3.427778742415383 16.258114171043353 3 -1 0
417 42 5 0.404798 2.538538026645323 4.640687404576333 16.74142110949764 3 -1 0
418 42 6 0.404798 0.4231719363619482 3.357814299038395 16.377007265701845 3 -1 0
754 76 4 0.404798 0.43269878274738854 1.556777944137505 19.611942408793766 1 1 0
24 3 4 0.404798 6.323085035278398 4.45175223277606 18.480624773685438 0 0 0
22 3 3 0.404798 6.6915748189867905 5.382616498139452 16.325264829522535 0 0 0
1586 159 2 -0.091672 7.564908410091232 9.340183081344074 21.94073688559511 0 0 -1
21 3 1 -0.091672 7.259088073298256 5.018287177529342 17.53798005537653 0 0 0
257 26 5 0.404798 5.777780778054453 8.742620464684158 16.435629441122337 1 0 1
262 27 3 0.404798 6.7823659716089 1.1918522759896062 18.00615993079991 2 1 0
229 23 9 -0.358962 4.252608460993588 2.387726099851212 22.281343335646515 0 2 0
260 26 10 -0.358962 2.337139610243854 9.02325764174296 16.61115176322396 1 0 1
263 27 7 -0.358962 7.641340920980497 1.8099461893181716 17.531057891558405 2 1 0
756 76 2 -0.091672 0.7036921667141322 0.9671109388800948 22.002605736630624 1 1 0
1588 159 6 0.404798 7.34053469951231 8.23297172525103 21.03044603018993 0 0 -1
1590 159 10 -0.358962 7.240508982699629 7.298230901260182 20.350847290728186 0 0 -1
940 94 10 -0.358962 7.3648892869226295 4.365418675354089 22.65785459447935 0 0 -1
270 27 10 -0.358962 7.874713912021787 1.2506721235779978 21.27239158292881 2 1 0
1599 160 9 -0.358962 14.507174577308007 0.36237078683988777 16.296861949773486 0 1 0
752 76 3 0.404798 0.07959514935101653 3.1861832973468864 21.389891009833207 1 1 0
751 76 1 -0.091672 0.3869835236750644 1.8414313346977458 21.03779514524259 1 1 0
844 85 4 0.404798 11.015446406863429 0.16245474196181847 18.148507026759553 3 -1 -1
520 52 10 -0.358962 0.9189182529294602 10.25776547462258 19.46368424737581 -1 0 1
411 42 1 -0.091672 2.5448252602479156 2.440142784806906 15.6624959947521 3 -1 0
268 27 6 0.404798 6.904175193830749 0.8495112593734985 20.779720742894053 2 1 0
264 27 4 0.404798 4.576606081948134 0.29687725684729843 17.991134972093963 2 1 0
258 26 6 0.404798 3.374956947149223 8.735249012840091 16.18035459028824 1 0 1
1078 108 6 0.404798 14.920938237001684 7.680031438101558 21.869837866837848 2 1 0
261 27 1 -0.091672 5.67360596274039 0.6686232862594669 18.757719611372462 2 1 0
266 27 2 -0.091672 5.744741047748357 0.5169298929138685 20.087204065071955 2 1 0
555 56 8 -0.358962 9.77028457411159 9.44042447236017 16.24752482384032 0 2 -1
1597 160 5 0.404798 14.147362528161286 1.4593261424632988 16.18361782603309 0 1 0
519 52 9 -0.358962 4.326661858216048 9.987611961612023 21.993431780833216 -1 0 1
1596 160 2 -0.091672 13.80352828243024 2.825509350998339 15.998708491273357 0 1 0
932 94 3 0.404798 10.557714297724612 6.129231405229357 23.02739173478379 0 0 -1
1010 101 10 -0.358962 14.386876876649849 2.7757499410513824 21.023200666934287 0 1 1
518 52 6 0.404798 1.6655240655375834 9.482619081971261 19.896498093753454 -1 0 1
1615 162 8 -0.358962 9.949462509853962 10.060755630551341 19.717179462549563 0 2 0
845 85 8 -0.358962 11.985451281781108 0.7489558915706026 18.394894813492872 3 -1 -1
1598 160 6 0.404798 13.528247008422534 3.634595562385802 17.130293423110906 0 1 0
1080 108 10 -0.358962 14.051398509389621 8.443660862378335 21.94965489879222 2 1 0
227 23 5 0.404798 4.395807718371683 2.9778909581053172 23.269674964742876 0 2 0
933 94 7 -0.358962 10.517174581567867 7.1699946147994975 22.516736805865925 0 0 -1
1613 162 7 -0.358962 12.390255585136847 6.503105457480209 19.633208269990725 0 2 0
1600 160 10 -0.358962 13.189015853087911 4.286148910629689 18.02806870514472 0 1 0
1620 162 10 -0.358962 14.900735225579474 8.578166792266735 16.82978344421413 0 2 0
26 3 2 -0.091672 8.563345997718113 5.178820778148362 17.800163619897695 0 0 0
28 3 6 0.404798 9.51584326571159 5.641175841992869 16.827990059249093 0 0 0
1008 101 6 0.404798 15.159805337498987 2.0609450808361047 20.536132289255942 0 1 1
1614 162 4 0.404798 10.908396599123067 9.544126447638982 19.318256297433848 0 2 0
1616 162 2 -0.091672 12.781472354136513 9.575930514447048 17.85586069576539 0 2 0
517 52 5 0.404798 3.6518537349250293 9.404760533000267 21.25146264252346 -1 0 1
27 3 5 0.404798 9.155160630101731 4.727583441389853 19.10349767785745 0 0 0
29 3 9 -0.358962 9.677486265878809 4.204372813361337 19.997380536527288 0 0 0
1612 162 3 0.404798 12.33036670971374 7.581186178119248 19.209232702406315 0 2 0
30 3 10 -0.358962 10.214018811128648 6.115810009844898 16.032456707805274 0 0 0
1618 162 6 0.404798 13.927573940530715 8.985826261011612 17.311832061928957 0 2 0
1611 162 1 -0.091672 12.074712492818866 8.9345763916435 18.796475058969705 0 2 0
938 94 6 0.404798 8.443442628242181 4.310859966012986 23.081347254802623 0 0 -1
354 36 4 0.404798 6.658166414656776 3.387559607342618 29.79945883662454 0 0 -1
475 48 8 -0.358962 10.283281675367085 10.144532985373752 28.502513272604965 1 0 -1
936 94 2 -0.091672 9.715778807226146 4.023864569753373 23.665109919575812 0 0 -1
351 36 1 -0.091672 6.345049737607843 2.009005400756111 29.98021932845523 0 0 -1
476 48 2 -0.091672 12.666864509208766 9.54894999835931 26.115175768229737 1 0 -1
480 48 10 -0.358962 14.467008903376236 10.095993358702108 24.3053935065057 1 0 -1
352 36 3 0.404798 5.72485992090395 1.3045060559611328 28.89999090534031 0 0 -1
830 83 10 -0.358962 1.226452393829167 3.918805884048226 27.53143927183823 0 1 0
355 36 8 -0.358962 6.848128059092011 4.513272407823794 29.593825039519228 0 0 -1
1154 116 4 0.404798 2.4620130826579256 9.096245325839266 25.159354481564304 1 0 1
1151 116 1 -0.091672 1.3516683063689683 9.905127212111779 25.70621143488073 1 0 1
356 36 2 -0.091672 6.775997158895511 1.3690982225508475 31.075848418406764 0 0 -1
222 23 3 0.404798 4.11832524071828 5.1125277584810185 26.34455658360055 0 2 0
428 43 6 0.404798 5.367365129615904 8.960787511018623 28.013218594014994 0 1 -3
223 23 7 -0.358962 4.278370049046412 5.539372107887283 27.411228773174944 0 2 0
427 43 5 0.404798 5.328540667113803 7.662791276436419 30.109122237295434 0 1 -3
230 23 10 -0.358962 6.911723369374862 2.9482573450449308 25.628565570098186 0 2 0
422 43 3 0.404798 7.999259062700403 8.208850840131618 27.74784845870049 0 1 -3
426 43 2 -0.091672 5.996190272030686 8.097394063736308 28.986810270890032 0 1 -3
1270 127 10 -0.358962 3.281798410800563 0.5536042297394996 24.95743466614493 -2 1 -2
221 23 1 -0.091672 3.9016068856014026 4.594089236158923 25.02507373151345 0 2 0
98 10 6 0.404798 12.436314109908155 0.027702442459303263 24.457485454031254 1 -1 1
228 23 6 0.404798 5.929976157714266 3.2764972499759653 25.105085891094337 0 2 0
828 83 6 0.404798 0.27434434357618676 3.257201317962945 27.56844815810874 0 1 0
353 36 7 -0.358962 5.24450306069741 0.7050785839458321 28.030770570522698 0 0 -1
226 23 2 -0.091672 4.670547292853783 3.644030748407138 24.475783717380168 0 2 0
421 43 1 -0.091672 7.292543775418764 7.787927098021274 28.847893794187726 0 1 -3
423 43 7 -0.358962 8.46061376303343 8.56270080471763 26.74408452293557 0 1 -3
1156 116 2 -0.091672 0.3155539351890355 9.309171222128066 26.311936994277545 1 0 1
224 23 4 0.404798 2.5809394112921695 4.806178245783792 24.429169605983184 0 2 0
777 78 5 0.404798 13.257530555333656 2.0779825365579203 27.640776007174843 1 0 -1
1583 159 7 -0.358962 7.033084911304891 6.85349276877746 24.359615271941713 0 0 -1
424 43 4 0.404798 8.070219658844422 7.254206321611332 29.890814272275602 0 1 -3
430 43 10 -0.358962 4.930774175529753 9.622157461946912 27.166118762026414 0 1 -3
1155 116 8 -0.358962 3.241111157315904 8.364462545399654 24.708688143070145 1 0 1
760 76 10 -0.358962 0.6264893611695731 1.510695818271467 24.571092584425422 1 1 0
1489 149 9 -0.358962 14.61907833002177 0.0045104700724571956 30.975351427636685 -1 1 -2
778 78 6 0.404798 14.714209808104384 4.051239166341392 28.223611369800828 1 0 -1
1565 157 8 -0.358962 8.506354987932852 0.4977753178065103 27.58013992632197 0 2 -1
477 48 5 0.404798 12.029814720320585 8.245239513152372 26.1466403937123 1 0 -1
937 94 5 0.404798 9.78538361521285 2.7137846923660778 24.28122121322082 0 0 -1
772 78 3 0.404798 12.34371786233476 5.5114836383353145 28.900084840856884 1 0 -1
776 78 2 -0.091672 13.380817560438194 3.496493603579829 27.99469718104389 1 0 -1
1563 157 7 -0.358962 11.757045382750233 1.2974561354022525 30.24887680837958 0 2 -1
479 48 9 -0.358962 11.69118721759341 7.135785925785598 26.13999582438491 1 0 -1
773 78 7 -0.358962 12.404268124496742 6.6201760227608215 29.235844961556932 1 0 -1
425 43 8 -0.358962 8.735250101013596 6.75158240842087 30.69747635107436 0 1 -3
225 23 8 -0.358962 1.557515105797402 4.966906047681816 23.907279519940644 0 2 0
939 94 9 -0.358962 9.732612417833748 1.6601937651308758 24.763674689193067 0 0 -1
774 78 4 0.404798 11.019100055790542 3.769188576466465 28.12360164087147 1 0 -1
775 78 8 -0.358962 9.976661609400765 3.4414990521478446 27.734318118532652 1 0 -1
83 9 7 -0.358962 14.572650933581631 8.928047168325367 29.13047002648033 -1 0 -1
771 78 1 -0.091672 12.337521064199713 4.191623984534786 28.467905563618107 1 0 -1
1564 157 4 0.404798 9.116790965754484 0.11144723379457919 28.48772932557115 0 2 -1
82 9 3 0.404798 14.579381599427245 9.935504708870237 29.70543437254703 -1 0 -1
478 48 6 0.404798 13.702352007473904 9.824880091508566 25.134487847775485 1 0 -1
1584 159 4 0.404798 7.884130931309377 10.215170441569844 24.150012573655992 0 0 -1
1562 157 3 0.404798 10.920920675963044 0.536863213743573 29.988120451212076 0 2 -1
779 78 9 -0.358962 13.02625124566126 0.9727521209899286 27.375115317506676 1 0 -1
931 94 1 -0.091672 10.77939109016517 4.83805706913211 23.627433943907718 0 0 -1
1582 159 3 0.404798 7.271612331822487 7.8844362156084475 23.884367681468998 0 0 -1
474 48 4 0.404798 11.168998151393954 10.392019685432901 27.795507857793922 1 0 -1
429 43 9 -0.358962 4.984636675078356 7.206411356494771 31.118601015493997 0 1 -3
934 94 4 0.404798 11.976760278173122 4.538560826804221 24.37189862454095 0 0 -1
1073 108 7 -0.358962 15.543698782332115 6.727941493876472 25.286804479852506 2 1 0
1157 116 5 0.404798 0.1235229096322179 7.891195615363608 26.432437052331164 1 0 1
935 94 8 -0.358962 12.958487334302687 4.315524370494494 24.948150934802847 0 0 -1
100 10 10 -0.358962 13.147949958961458 0.9267305857848344 24.28163661327817 1 -1 1
196 20 2 -0.091672 4.323165287832186 15.435736709277252 5.312617165362088 1 0 0
1441 145 1 -0.091672 6.0126380453366455 18.209215276294014 0.894391925405276 0 -1 1
40 4 10 -0.358962 1.617896843355771 20.772624219839376 0.10261104401697266 2 -1 0
1509 151 9 -0.358962 10.5388206450655 10.681625356313955 2.0926626251360463 1 -1 1
198 20 6 0.404798 4.7592610032260545 15.645891490370442 3.945736270854159 1 0 0
1444 145 4 0.404798 4.797445400286835 18.277711765093073 0.19144641935671686 0 -1 1
200 20 10 -0.358962 4.901758488845928 15.862221056725971 2.815030304730137 1 0 0
1546 155 2 -0.091672 5.7044390952054895 20.24043231929325 6.199050649144656 0 0 0
303 31 7 -0.358962 15.118013580602023 16.976700229543493 3.511759934374191 0 -1 0
928 93 6 0.404798 2.763025123657187 12.71754138756679 2.73863280292268 2 1 0
1549 155 9 -0.358962 3.445001778287472 20.147153589882706 7.47002472830736 0 0 0
1448 145 6 0.404798 8.129056715188767 17.163042046602666 1.4088883365029459 0 -1 1
192 20 3 0.404798 2.968994259015721 17.42204164333623 5.073824127433233 1 0 0
193 20 7 -0.358962 2.5281013640624783 18.284020827549828 4.434914634460484 1 0 0
191 20 1 -0.091672 3.39517308521033 16.282268316727603 5.779323396038583 1 0 0
1505 151 8 -0.358962 6.639678325854484 11.70961957192641 3.2749502869327247 1 -1 1
1502 151 3 0.404798 6.941705800308609 13.622262661509923 0.5301830207904202 1 -1 1
442 45 3 0.404798 0.9856381537946182 16.390333144007204 2.0441121210340865 1 -2 1
443 45 7 -0.358962 1.6849775521090993 15.61543797381748 2.5501376908375413 1 -2 1
930 93 10 -0.358962 3.4993533568835447 12.814940541527232 3.6296626215921592 2 1 0
1442 145 3 0.404798 5.86107403126114 18.84357237562224 2.2097269791847944 0 -1 1
349 35 9 -0.358962 10.467851648683654 11.10718326837298 5.351328847215735 0 1 0
1443 145 7 -0.358962 5.6568506499815046 19.377320714343984 3.2191850090783842 0 -1 1
1504 151 4 0.404798 7.257874320833344 12.082551865089034 2.367010198769458 1 -1 1
1547 155 5 0.404798 4.438470741513508 20.24711601622033 6.879578347986131 0 0 0
197 20 5 0.404798 5.047390889958245 14.561729912075185 6.157969481381549 1 0 0
194 20 4 0.404798 3.018155679377008 16.33317119344888 7.200283817418052 1 0 0
533 54 7 -0.358962 1.028399384808862 10.80736091464904 4.8574157124865796 -1 0 1
199 20 9 -0.358962 5.5712388054077895 13.837911530407794 6.897746683892744 1 0 0
111 12 1 -0.091672 12.017187202333371 17.13723526388108 1.8065291959279497 0 -1 0
1545 155 8 -0.358962 6.2846949066930415 16.96615779886027 7.41967108134925 0 0 0
441 45 1 -0.091672 0.16212047652252562 17.373349767853476 1.424114081965469 1 -2 1
927 93 5 0.404798 0.5889634770568032 12.730778098159899 1.7568050468916216 2 1 0
1446 145 2 -0.091672 7.1552071752633335 17.64011589018463 0.4866399537826937 0 -1 1
926 93 2 -0.091672 1.9807677757274422 12.479557960742563 1.5555479876400482 2 1 0
1501 151 1 -0.091672 7.81747631477875 12.681270695842455 1.1767480753496489 1 -1 1
1406 141 2 -0.091672 11.790656479301417 14.503086086726636 7.472020288827652 0 -2 0
1408 141 6 0.404798 12.597094995003545 14.819407417458018 6.380572645283063 0 -2 0
116 12 2 -0.091672 12.719489829017212 16.148258497009312 1.2370592903530055 0 -1 0
921 93 1 -0.091672 2.4687483139184514 12.029421501123654 0.3915668189771739 2 1 0
113 12 7 -0.358962 11.483895993080063 17.2698735096225 4.319483420234577 0 -1 0
1544 155 4 0.404798 6.394870361814138 18.000333522880474 6.905918280466944 0 0 0
73 8 7 -0.358962 12.119982297227335 20.07383702300456 7.19353525356516 0 0 -2
1541 155 1 -0.091672 6.6103064104822336 19.258757690282263 6.305442984968289 0 0 0
1450 145 10 -0.358962 8.884120473167943 16.77368784771466 2.1987503636302206 0 -1 1
72 8 3 0.404798 13.090543167040824 20.028725940711645 6.559834548746645 0 0 -2
1543 155 7 -0.358962 8.754633497387854 19.581804546886183 4.8547693133026355 0 0 0
1402 141 3 0.404798 10.05461397520675 14.289300663559754 5.829387738540364 0 -2 0
1401 141 1 -0.091672 10.555234369390236 14.088380211910689 7.160008674480966 0 -2 0
1403 141 7 -0.358962 9.65300753283853 14.333317556166492 4.742017158405518 0 -2 0
114 12 4 0.404798 11.476811322494179 18.198649717608873 1.0328186979209497 0 -1 0
1410 141 10 -0.358962 13.29761909030897 15.001197279231318 5.47403062736958 0 -2 0
75 8 8 -0.358962 13.514728930600254 19.907109765395937 3.202588713094385 0 0 -2
71 8 1 -0.091672 14.203622140541757 20.015867082029967 5.7049354515018695 0 0 -2
1507 151 5 0.404798 9.838144087677904 11.351733130433068 1.4557890676615417 1 -1 1
120 12 10 -0.358962 13.251892846033233 13.957359727350292 2.4851444988843956 0 -1 0
335 34 8 -0.358962 8.425889360859959 20.123193800335287 1.815732073549028 -1 -1 -1
118 12 6 0.404798 13.064183853442634 14.98000365507349 1.9707859385114557 0 -1 0
74 8 4 0.404798 13.80075990411991 19.977088117859203 4.324591077901222 0 0 -2
115 12 8 -0.358962 11.028575477427108 19.03426932576862 0.36466864215918066 0 -1 0
76 8 2 -0.091672 15.463714513654834 19.876896264239033 6.1390487051300315 0 0 -2
1506 151 2 -0.091672 8.935628895713055 12.164799391454197 0.6489297405173035 1 -1 1
1542 155 3 0.404798 7.822350757163837 19.40706374993816 5.522537642146126 0 0 0
112 12 3 0.404798 11.752204665762585 17.15958497778574 3.1963418928031273 0 -1 0
1439 144 9 -0.358962 0.49478839622606274 14.250621831764516 5.0331031623351 -1 1 0
1020 102 10 -0.358962 14.853955826036776 16.748449173644605 7.693021817501637 0 1 0
922 93 3 0.404798 3.8133612890029562 11.620076486187518 0.20337785632499855 2 1 0
923 93 7 -0.358962 4.841294564469315 11.11502884181125 0.01931253678442326 2 1 0
444 45 4 0.404798 0.40532024730376076 17.491832890414862 0.03520975692589445 1 -2 1
281 29 1 -0.091672 1.2660337076399037 18.62358119472951 10.503293892410424 1 -1 0
876 88 2 -0.091672 5.1330091117205745 14.377326153709912 11.419479863135056 1 1 -1
286 29 2 -0.091672 1.8271240921821084 19.82200722871606 10.714368798932544 1 -1 0
967 97 5 0.404798 1.4170366105145211 11.729040374012929 15.610582222543524 0 0 0
727 73 5 0.404798 1.276948721991949 18.07180112852333 14.840118560658972 0 0 1
195 20 8 -0.358962 2.6865999267581113 16.25613685288306 8.309218662962625 1 0 0
1275 128 8 -0.358962 7.4097865948256105 18.877221400505174 11.081851117580115 1 -1 1
871 88 1 -0.091672 4.150872461596045 13.470320987495656 11.510853952920918 1 1 -1
877 88 5 0.404798 5.132502284648035 15.579761242194246 10.621604382355104 1 1 -1
1274 128 4 0.404798 7.192615856931304 19.068929973421046 12.205098505036528 1 -1 1
288 29 6 0.404798 2.8357766320184403 19.908192424699703 11.745498017021971 1 -1 0
874 88 4 0.404798 2.9677577360196183 13.682458002232066 10.790422254423635 1 1 -1