LAMMPS data file via write_data, version 29 Sep 2021, timestep = 5000000

1620 atoms
10 atom types
1458 bonds
9 bond types
1620 angles
10 angle types
1944 dihedrals
12 dihedral types

0 31.303 xlo xhi
0 31.303 ylo yhi
0 31.303 zlo zhi

Masses

1 12.01
2 12.01
3 12.01
4 12.01
5 12.01
6 12.01
7 14.01
8 14.01
9 14.01
10 14.01

Bond Coeffs # harmonic

1 400 1.426
2 400 1.426
3 400 1.426
4 400 1.426
5 549 1.34
6 650 1.16
7 650 1.16
8 650 1.16
9 650 1.16

Angle Coeffs # harmonic

1 70 116.8
2 70 116.8
3 70 121.6
4 70 121.6
5 70 121.6
6 70 121.6
7 70 178.9
8 70 178.9
9 70 178.9
10 70 178.9

Dihedral Coeffs # opls

1 0 0 0 0
2 0 0 0 0
3 0 0 0 0
4 0 0 0 0
5 0 0 0 0
6 0 0 0 0
7 0 0 0 0
8 0 0 0 0
9 0 14 0 0
10 0 14 0 0
11 0 14 0 0
12 0 14 0 0

Atoms # full

92 10 3 0.404798 1.5760659179364962 7.234591915126599 2.8551006510266554 0 -1 1
91 10 1 -0.091672 1.9246097609842385 6.49481674066458 1.684749691272783 0 -1 1
87 9 5 0.404798 6.995637802580107 2.1799236251427483 3.916479923912261 1 -1 -1
88 9 6 0.404798 4.9940548791226 3.2820176536041914 3.4055329787743696 1 -1 -1
86 9 2 -0.091672 5.625634519472493 2.0685956900132525 3.5997578553320775 1 -1 -1
90 9 10 -0.358962 4.508116316726448 4.32268577316426 3.2428253209675653 1 -1 -1
94 10 4 0.404798 1.2195915811008204 5.346155948205712 1.4767964214230298 0 -1 1
83 9 7 -0.358962 2.491495165919553 0.7106061163591149 2.815289083725187 1 -1 -1
96 10 2 -0.091672 3.048379842543164 6.796294579695152 1.0200302170105509 0 -1 1
95 10 8 -0.358962 0.6824188636980869 4.382216559941906 1.1192123509527505 0 -1 1
1424 143 4 0.404798 5.388378911142353 7.344917292923737 4.811386065641273 -1 -1 1
1425 143 8 -0.358962 4.260972738587173 7.255509694587136 5.069381438727769 -1 -1 1
81 9 1 -0.091672 4.99578904778198 0.8859481449418491 3.6152333510900414 1 -1 -1
1421 143 1 -0.091672 6.756094300616923 7.509644882012943 4.461876522038766 -1 -1 1
1239 124 9 -0.358962 3.7187619312519318 3.4416288248080806 6.329785670545077 1 0 2
82 9 3 0.404798 3.5982210717164107 0.7559310975034189 3.1598228093152763 1 -1 -1
1422 143 3 0.404798 6.962703835510918 6.990718850120798 3.110271988944157 -1 -1 1
1423 143 7 -0.358962 7.191410112322659 6.620804169509055 2.034885276992285 -1 -1 1
663 67 7 -0.358962 0.638881522484125 3.914056153482945 4.200597467379332 1 0 0
959 96 9 -0.358962 6.213970861236465 3.578016343535417 0.8117087498175265 0 1 0
100 10 10 -0.358962 4.424684258392333 8.8656036018431 1.816716104395066 0 -1 1
1237 124 5 0.404798 3.477550067086476 4.290393537969256 7.082789898460956 1 0 2
1426 143 2 -0.091672 7.57672057413793 8.210550596693835 5.256171003835759 -1 -1 1
98 10 6 0.404798 3.8483181352214864 7.933439962852759 1.436619976527524 0 -1 1
1427 143 5 0.404798 7.118049396100773 8.871556921462012 6.428381879625258 -1 -1 1
93 10 7 -0.358962 1.2347089892874994 7.885802928452867 3.752318413002963 0 -1 1
1073 108 7 -0.358962 7.8689485201129585 10.281058807191046 2.4058264910754956 0 0 0
1071 108 1 -0.091672 9.178524599463502 9.98632601430087 0.18189209423808184 0 0 0
1430 143 10 -0.358962 10.00402043259528 8.74162395974724 4.502712971002087 -1 -1 1
350 35 10 -0.358962 6.722037448652082 1.875105899323592 7.449374790601213 0 1 1
1263 127 7 -0.358962 0.3320829774068472 0.9592896866971501 7.110602532147004 -1 0 1
735 74 8 -0.358962 15.4861689087236 6.298353405979117 4.322580980912603 1 0 0
1429 143 9 -0.358962 6.71548635806025 9.517625227478092 7.303675489064057 -1 -1 1
89 9 9 -0.358962 8.121393409783018 2.244598374420269 4.188677493960013 1 -1 -1
715 72 8 -0.358962 14.085267194432182 4.463299386276205 0.8112339981355668 0 -1 1
1473 148 7 -0.358962 3.2799407286261673 10.175608345391668 7.386628075063877 0 0 -1
1118 112 6 0.404798 12.474477698042387 3.9429928963413983 5.166652765610763 -1 0 1
1428 143 6 0.404798 8.918221032655408 8.543750173265897 4.859764335278265 -1 -1 1
118 12 6 0.404798 14.270948186040245 9.274439014045157 1.9891075070504616 0 0 1
1235 124 8 -0.358962 6.489120493536828 5.9517896214639565 7.552498896059539 1 0 2
120 12 10 -0.358962 13.132451253263978 9.346560475337345 2.1994008657521342 0 0 1
1078 108 6 0.404798 10.286736612485013 7.8939675684954445 0.837858766087509 0 0 0
1112 112 3 0.404798 12.903233042409543 1.7794038126383618 3.368497910657387 -1 0 1
943 95 7 -0.358962 10.631169291769277 6.140245354807196 7.165799850321622 0 1 -1
1116 112 2 -0.091672 11.571394485988804 3.6161165437429994 4.126096898861169 -1 0 1
1117 112 5 0.404798 10.339786276278293 4.3022845860508925 4.145866887809451 -1 0 1
948 95 6 0.404798 12.982926437333136 7.3280144483443825 4.726587829772123 0 1 -1
1115 112 8 -0.358962 10.553292312095657 2.115471002589489 1.0556446039474434 -1 0 1
1111 112 1 -0.091672 11.79301240175942 2.6443981208250658 3.2304134512668012 -1 0 1
1072 108 3 0.404798 8.45652274637434 10.116802182054641 1.4192281359561663 0 0 0
941 95 1 -0.091672 12.683998325707046 7.667337024291666 7.073113653807567 0 1 -1
1119 112 9 -0.358962 9.413993543945452 4.993902592921935 4.246725000863971 -1 0 1
942 95 3 0.404798 11.596687388519506 6.782619725997824 7.192818487846006 0 1 -1
946 95 2 -0.091672 13.34329351469943 7.918430911020083 5.9338674941035965 0 1 -1
947 95 5 0.404798 14.6130622148024 8.628130195504854 5.757726093377186 0 1 -1
1113 112 7 -0.358962 13.832562625662595 1.0976321039565884 3.499394383485395 -1 0 1
1114 112 4 0.404798 11.056412882570081 2.330989584845453 2.0783964983463026 -1 0 1
950 95 10 -0.358962 12.645636330609964 6.874028515615086 3.7138034506162203 0 1 -1
1120 112 10 -0.358962 13.239308392012257 4.294593710764371 5.964782377632451 -1 0 1
1080 108 10 -0.358962 10.4613149390382 7.024330138979134 1.5854237519501357 0 0 0
1262 127 3 0.404798 1.167779754650858 0.5403792763396481 7.79742493387903 -1 0 1
949 95 9 -0.358962 15.63039033330599 9.093400733873857 5.450859498026159 0 1 -1
97 10 5 0.404798 3.6289838652505098 6.042577264399245 0.020775343025022153 0 -1 1
1232 124 3 0.404798 3.7009464958873375 7.273948526145389 9.361022686752525 1 0 2
142 15 3 0.404798 5.054251457069767 4.124478220255949 11.766170946534952 0 1 0
1398 140 6 0.404798 12.019834922443474 0.2538830150707733 8.10745265443206 0 2 -1
143 15 7 -0.358962 5.545064355281485 4.540460550328309 10.800944829816848 0 1 0
709 71 9 -0.358962 0.04377277546118238 0.6591493787892242 13.847668075516575 0 0 0
1233 124 7 -0.358962 3.4473445621875762 8.100339924863476 10.134562185456767 1 0 2
1204 121 4 0.404798 14.592479879059965 1.9457060651406162 11.320642860941003 2 1 1
148 15 6 0.404798 6.723277082405434 3.4498037524271035 13.942827648896337 0 1 0
146 15 2 -0.091672 5.341121435107122 3.53613772981594 14.072898292346185 0 1 0
141 15 1 -0.091672 4.5730023476952235 3.834476987269616 13.01621158849978 0 1 0
150 15 10 -0.358962 7.880460548871714 3.408557257608922 13.873363681952576 0 1 0
348 35 6 0.404798 7.543796591035143 2.149218204920761 8.220850291640554 0 1 1
144 15 4 0.404798 3.1580073985361556 4.076009728940881 13.158397105695753 0 1 0
343 35 7 -0.358962 6.480072033163615 1.3284020127226017 11.710689455098656 0 1 1
298 30 6 0.404798 6.4016266630189085 7.696589629231161 12.427262095570363 0 1 0
300 30 10 -0.358962 5.7058336474418265 7.2022216019650305 13.212801648137821 0 1 0
1238 124 6 0.404798 1.7724164226834722 5.5228737636118925 8.217362999321843 1 0 2
145 15 8 -0.358962 2.042092394853746 4.358618661066592 13.301456403148935 0 1 0
133 14 7 -0.358962 3.220861215441502 0.18242392503619148 13.596773123858249 2 -1 1
296 30 2 -0.091672 7.192293738991765 8.424973589018478 11.399525259381157 0 1 0
1264 127 4 0.404798 3.1138156251286127 0.8998440199582597 9.237707065213966 -1 0 1
1231 124 1 -0.091672 4.037998628861374 6.281181292169614 8.365718998244436 1 0 2
1305 131 8 -0.358962 1.0771443141513584 7.456533357345514 11.890575811172457 1 0 -1
1302 131 3 0.404798 0.11618049671128772 8.72438782690772 8.96163048387128 1 0 -1
43 5 7 -0.358962 7.176058502730274 9.43733614649677 15.594972050825898 0 0 1
944 95 4 0.404798 13.149525683847859 8.091865446363972 8.376918540529857 0 1 -1
1265 127 8 -0.358962 3.8688278779535334 1.6471238716430343 9.703678514075051 -1 0 1
1240 124 10 -0.358962 0.6267470620973576 5.614968524759409 8.374080227759608 1 0 2
1201 121 1 -0.091672 14.139266137268427 3.271017198225987 11.020074248083628 2 1 1
1261 127 1 -0.091672 2.162380487815242 0.01914599936135584 8.677888827879167 -1 0 1
1303 131 7 -0.358962 0.5983490622060793 8.675672501814574 7.907713825673939 1 0 -1
1400 140 10 -0.358962 12.611107769746143 1.2055218435631552 8.408085255434235 0 2 -1
147 15 5 0.404798 4.806557044932582 3.3483766734211815 15.359828985267644 0 1 0
945 95 8 -0.358962 13.569084353158456 8.577883363239467 9.343022628229528 0 1 -1
1234 124 4 0.404798 5.411424255173142 6.173711416076226 7.919815651246533 1 0 2
1304 131 4 0.404798 0.3422044660790177 8.049029147192757 11.216474795356897 1 0 -1
1260 126 10 -0.358962 14.6242184476316 9.740112835241066 12.892541329787301 0 -1 -1
344 35 4 0.404798 9.604422704674231 2.5838094626382526 11.19269227956126 0 1 1
349 35 9 -0.358962 10.860042640572695 3.129629963030859 7.991786410690821 0 1 1
347 35 5 0.404798 9.85639031746989 2.768031468206644 8.447339420301732 0 1 1
1202 121 3 0.404798 14.374391908940407 3.7463020319312155 9.6839290250931 2 1 1
341 35 1 -0.091672 8.502301723390742 2.24986821564855 10.372607624160802 0 1 1
297 30 5 0.404798 6.772884826535739 9.776201774469072 11.032509756506073 0 1 0
295 30 8 -0.358962 9.800817017951289 9.054472708938901 9.08512171550447 0 1 0
1208 121 6 0.404798 13.095169403393681 5.3610085096924545 11.635550156287529 2 1 1
342 35 3 0.404798 7.3632875203136745 1.7421872805536722 11.082746656722595 0 1 1
1207 121 5 0.404798 13.429230093989768 3.5960572176638963 13.276264622734159 2 1 1
346 35 2 -0.091672 8.652963983486053 2.418369308901831 9.051809270884021 0 1 1
292 30 3 0.404798 8.65196036601101 6.578329667199405 11.213909356687772 0 1 0
345 35 8 -0.358962 10.48901086558716 2.7973707794294724 11.912063808273667 0 1 1
1205 121 8 -0.358962 14.96051504142727 0.8720431033620344 11.560221924914147 2 1 1
1209 121 9 -0.358962 13.440708462739 3.1891433358599057 14.36249174078018 2 1 1
294 30 4 0.404798 9.07491730465178 8.485123213805874 9.788336318466477 0 1 0
291 30 1 -0.091672 8.203027577624466 7.830592600759573 10.750889467668324 0 1 0
1206 121 2 -0.091672 13.52097557536868 4.056000937774352 11.91288851943065 2 1 1
1203 121 7 -0.358962 14.78570437410355 4.134613339788489 8.671191921988472 2 1 1
1210 121 10 -0.358962 12.774844174400938 6.442008749589694 11.36273108260201 2 1 1
293 30 7 -0.358962 8.932548292993475 5.502931025673565 11.546156551458427 0 1 0
1363 137 7 -0.358962 9.933877073864657 6.312374369730817 15.584151127689525 1 0 -1
1236 124 2 -0.091672 3.156773419035606 5.3505290910991 7.9746580988837135 1 0 2
1258 126 6 0.404798 14.687716895926528 10.314429376186146 13.898388480314365 0 -1 -1
553 56 7 -0.358962 0.5057523195135527 10.355716200148562 15.447747141858924 0 2 0
1176 118 2 -0.091672 3.558188542242188 1.0287439577750044 20.27528016839005 0 0 -1
1178 118 6 0.404798 3.425060063670268 1.9041352383783978 21.488046179621314 0 0 -1
999 100 9 -0.358962 5.961235236561616 3.5356355455623536 20.37216358134511 0 0 -1
1316 132 2 -0.091672 12.188655588533484 9.599648642680549 20.539378994320316 -1 0 0
1291 130 1 -0.091672 2.3064782192852253 8.546212802309157 21.98118285904629 1 0 0
1296 130 2 -0.091672 2.3469917803819667 7.374665817950355 21.332001561538537 1 0 0
1297 130 5 0.404798 3.0317375376127136 6.251067244232071 21.87713646088103 1 0 0
1171 118 1 -0.091672 2.835314098347595 1.3105310786730489 19.18273789762887 0 0 -1
1174 118 4 0.404798 3.012384224879562 0.585488450898529 18.004295771968955 0 0 -1
48 5 6 0.404798 6.3636650421163505 9.632786586267947 18.904577916082538 0 0 1
1180 118 10 -0.358962 3.17615208244182 2.428075126764893 22.492601709005424 0 0 -1
46 5 2 -0.091672 6.652118459214095 8.259370006500225 18.773246592809343 0 0 1
1172 118 3 0.404798 2.1197491328267257 2.586489382655515 19.14153593652502 0 0 -1
1173 118 7 -0.358962 1.6194248443020647 3.6168956483466737 19.324671255383546 0 0 -1
47 5 5 0.404798 6.641600217243194 7.435289304773583 19.91746914667144 0 0 1
938 94 6 0.404798 8.378626803109958 1.2429931250372515 17.862923914720135 1 1 0
1298 130 6 0.404798 1.6363226686007744 7.229574819105662 20.170134553615682 1 0 0
998 100 6 0.404798 9.122299371276695 4.106324342970889 21.377933022418066 0 0 -1
997 100 5 0.404798 6.8559892632980715 3.593068598903259 21.108177637150902 0 0 -1
695 70 8 -0.358962 6.414089176169168 10.021059453969798 22.170655615066668 0 -1 0
44 5 4 0.404798 7.091895956444377 6.414367697237362 17.327592229703807 0 0 1
41 5 1 -0.091672 6.944902477999777 7.8096993915057675 17.545372767608836 0 0 1
694 70 4 0.404798 6.914185648345037 10.06494822782532 23.21639809847825 0 -1 0
1026 103 2 -0.091672 13.89312180024965 2.4721687983914324 23.38757200723555 0 1 0
1299 130 9 -0.358962 3.648164643655496 5.346485240338021 22.260997181518626 1 0 0
780 78 10 -0.358962 3.4918383122268413 9.223674567488278 17.01242151163346 0 1 0
149 15 9 -0.358962 4.334005904495845 3.036220050989295 16.372179559489908 0 1 0
983 99 7 -0.358962 9.772798125977703 9.902767102185999 17.279105973267583 0 1 -2
1300 130 10 -0.358962 0.965916636880521 7.154572580539139 19.226455348354094 1 0 0
42 5 3 0.404798 7.067031493300065 8.66726637218476 16.455614651506576 0 0 1
1294 130 4 0.404798 2.939583040504758 8.727099354981197 23.208915016767033 1 0 0
1292 130 3 0.404798 1.4602871532330384 9.546227124160797 21.486008094178327 1 0 0
940 94 10 -0.358962 8.51462949704315 2.2347267801333515 18.449070379963008 1 1 0
1364 137 4 0.404798 10.496308851001407 2.7299429276004687 15.86804373641704 1 0 -1
1293 130 7 -0.358962 0.8495976663810973 10.382473278599186 20.963178559003307 1 0 0
991 100 1 -0.091672 7.919340478839676 3.178764987386974 23.303858343205448 0 0 -1
1317 132 5 0.404798 13.318752711466777 8.748017759884354 20.514647976947245 -1 0 0
1318 132 6 0.404798 10.939892495121224 9.005304761618675 20.812996699004263 -1 0 0
49 5 9 -0.358962 6.578809412696658 6.818796364057888 20.89807805297963 0 0 1
45 5 8 -0.358962 7.079381408688731 5.265045854193962 17.171058573941114 0 0 1
1463 147 7 -0.358962 0.03978218418202229 0.6765508100760812 20.658980945723876 2 2 0
1319 132 9 -0.358962 14.166871820573029 7.960374832776674 20.437753862260152 -1 0 0
1028 103 6 0.404798 12.79172035050922 1.8026698164322432 22.946707900348375 0 1 0
1030 103 10 -0.358962 11.908766509526059 1.206207539187099 22.48820446898978 0 1 0
1055 106 8 -0.358962 8.685948978261491 0.4989887219570283 20.901087804258058 1 1 1
1361 137 1 -0.091672 10.880162101991123 4.01835747988847 16.355300115117622 1 0 -1
1366 137 2 -0.091672 11.727051306799813 4.1595947385558745 17.3841007491594 1 0 -1
4 1 4 0.404798 15.42283259834907 1.0369653576279283 16.209520269370355 1 1 -1
1165 117 8 -0.358962 15.415545739967488 0.45950720097913944 19.29304723846118 -1 1 1
1000 100 10 -0.358962 10.108135300629773 4.3969678378413315 20.84010971290646 0 0 -1
1362 137 3 0.404798 10.316120779133549 5.2386870319671015 15.800218980754954 1 0 -1
1369 137 9 -0.358962 13.003759011765743 2.298087448225835 18.677315715950563 1 0 -1
996 100 2 -0.091672 7.961911110965284 3.6230712161257927 22.04037908785336 0 0 -1
558 56 6 0.404798 0.49621675499040024 6.793652331824095 16.37256227607639 0 2 0
560 56 10 -0.358962 1.5393077671378101 6.460294464696787 15.989895666055236 0 2 0
1367 137 5 0.404798 12.439370056451251 3.090605039100834 18.04566627835656 1 0 -1
1320 132 10 -0.358962 9.943905634659988 8.571530384411567 21.21975213267051 -1 0 0
1368 137 6 0.404798 12.057073183364265 5.41510399944124 17.988279952767904 1 0 -1
1370 137 10 -0.358962 12.22681173351068 6.465823931027156 18.449556958027443 1 0 -1
778 78 6 0.404798 3.403906361640196 10.344688555038886 16.727473035131602 0 1 0
1022 103 3 0.404798 15.378254423563412 0.6406633734867452 23.11880895775652 0 1 0
1021 103 1 -0.091672 15.13932110450657 1.9815731573659323 23.431198212043924 0 1 0
1365 137 8 -0.358962 10.122669656385892 1.6499668480289489 15.66893210244176 1 0 -1
1042 105 3 0.404798 2.3441480704003475 1.4303253957552935 25.249516925165267 0 1 0
1044 105 4 0.404798 0.46072430858644453 2.828777489283084 24.843877177142794 0 1 0
1041 105 1 -0.091672 1.8321868647223098 2.7459984053919118 25.31083773912706 0 1 0
1046 105 2 -0.091672 2.507668659305179 3.868373986788235 25.59296788662185 0 1 0
1050 105 10 -0.358962 4.996211584342889 3.967082278573785 26.375593489949487 0 1 0
1048 105 6 0.404798 3.913559890120824 3.869225306520601 25.970760923595755 0 1 0
1247 125 5 0.404798 0.07397136293101376 8.804409841659242 30.709900235443055 1 0 0
1047 105 5 0.404798 1.9161968805992755 5.125134937982898 25.750160157091347 0 1 0
697 70 5 0.404798 7.008026359279016 7.696607807361904 24.713339866050735 0 -1 0
271 28 1 -0.091672 1.0449587005337624 2.66659944085709 29.764543856189775 1 0 0
1049 105 9 -0.358962 1.3862493101252011 6.156886793985931 25.765775960088767 0 1 0
618 62 6 0.404798 3.8395931075226697 8.650136724781756 28.273135400617097 0 0 0
620 62 10 -0.358962 4.384615082960328 7.6264187011080615 28.24962910555653 0 0 0
960 96 10 -0.358962 7.908059503261442 7.11080155229724 30.156535839640643 0 1 -1
954 96 4 0.404798 6.8430634773757415 2.553288923262787 28.85377779047445 0 1 -1
951 96 1 -0.091672 7.308420525907197 3.9093703220511165 28.861347814677526 0 1 -1
696 70 2 -0.091672 7.585433839749925 8.903909645365157 25.212770153078417 0 -1 0
274 28 4 0.404798 0.9635827603920925 4.024689334631807 29.431218397782988 1 0 0
275 28 8 -0.358962 0.9524447538278392 5.144936110526345 29.13034764637719 1 0 0
272 28 3 0.404798 2.3146431409135126 2.2094258662762853 30.19708114000185 1 0 0
617 62 5 0.404798 2.0839239927243756 10.113975454202386 27.351976990739583 0 0 0
956 96 2 -0.091672 7.217523627634531 4.648903396898274 29.975093121053025 0 1 -1
958 96 6 0.404798 7.58082164294032 6.006618648344442 30.017627602856827 0 1 -1
616 62 2 -0.091672 3.1749578793230016 9.92953690147516 28.232513128682463 0 0 0
99 10 9 -0.358962 3.994764304406598 5.381191554322632 30.44379033413433 0 -1 0
1043 105 7 -0.358962 2.8387236913291933 0.38814325021829665 25.371382998205828 0 1 0
113 12 7 -0.358962 14.493831546594643 7.154344072486833 30.311580106683184 0 0 0
1249 125 9 -0.358962 1.1828171925341562 8.489863279293015 30.579051237228036 1 0 0
699 70 9 -0.358962 6.419397579667904 6.839398017169998 24.19923135272847 0 -1 0
952 96 3 0.404798 7.747836056218241 4.633926236375902 27.644382005064855 0 1 -1
1189 119 9 -0.358962 10.822083049340854 10.02521716734874 24.670748327725992 1 0 -1
619 62 9 -0.358962 1.1889485920747604 10.219758193849723 26.621614713121087 0 0 0
691 70 1 -0.091672 7.533752677910403 10.053881949047039 24.526845353707525 0 -1 0
273 28 7 -0.358962 3.363429274271048 1.9287653547918935 30.60558741582179 1 0 0
953 96 7 -0.358962 8.063424463547836 5.0687541845674655 26.616311662259378 0 1 -1
995 100 8 -0.358962 5.749974748103173 2.1166851590844984 24.18143202983083 0 0 -1
1295 130 8 -0.358962 3.484107929593874 8.94925515256058 24.208784740788623 1 0 0
994 100 4 0.404798 6.709975779640519 2.64327989987637 23.798422809427336 0 0 -1
112 12 3 0.404798 15.23039245338305 7.694063333157926 31.026968924313326 0 0 0
955 96 8 -0.358962 6.414669694197163 1.4755251912147078 28.831324941773147 0 1 -1
716 72 2 -0.091672 12.489469467168878 3.7824420345799865 29.042143423520706 0 -1 0
1076 108 2 -0.091672 10.060597893634517 8.997151093519358 31.28720616722203 0 0 -1
992 100 3 0.404798 9.122557172632376 3.0778222498056453 24.137274114050978 0 0 -1
243 25 7 -0.358962 14.475280801268571 0.01779643932694184 26.209826375884248 0 1 0
698 70 6 0.404798 8.234682009912534 8.843551177596934 26.50418837654206 0 -1 0
700 70 10 -0.358962 8.622444792880577 8.866405229288588 27.59721981642472 0 -1 0
957 96 5 0.404798 6.710179595842807 4.075170248231244 31.191553833890186 0 1 -1
1190 119 10 -0.358962 15.105575335330625 9.719268619357988 26.38652812168444 1 0 -1
714 72 4 0.404798 13.83419869902063 4.085663700589974 31.046546794760523 0 -1 0
1187 119 5 0.404798 11.737848135500023 9.492293958273471 25.1429424382016 1 0 -1
109 11 9 -0.358962 9.466173599228332 1.3393229383173633 28.045761147159624 0 0 0
1185 119 8 -0.358962 10.430432961809583 6.298993610228023 24.9277473178269 1 0 -1
1188 119 6 0.404798 14.075503085847584 9.28887697549278 26.07138647437194 1 0 -1
993 100 7 -0.358962 9.98083960415789 2.88639846991697 24.89378468782732 0 0 -1
1027 103 5 0.404798 13.574873276880597 3.856586847583573 23.699966875694717 0 1 0
1181 119 1 -0.091672 12.61317790707054 7.403127678486047 25.83137613843165 1 0 -1
250 25 10 -0.358962 12.740153747289668 0.657152790703276 29.941266451509474 0 1 0
1079 108 9 -0.358962 11.478674055552032 9.121611960645675 29.10995520447438 0 0 -1
720 72 10 -0.358962 12.331625569682148 3.697200829021919 26.475020756220154 0 -1 0
1077 108 5 0.404798 10.79047739941398 9.089348791415373 30.043199287293042 0 0 -1
717 72 5 0.404798 11.351876798762886 4.454383394123177 29.612369806859085 0 -1 0
711 72 1 -0.091672 13.664304642741444 3.6578046088240197 29.674462830730658 0 -1 0
712 72 3 0.404798 14.76854155347636 3.087583005821474 29.039217692199912 0 -1 0
719 72 9 -0.358962 10.393674753716043 4.956871759806942 30.030645185463516 0 -1 0
1184 119 4 0.404798 11.429369725862227 6.727645666238769 25.332695216610638 1 0 -1
1183 119 7 -0.358962 14.589077188959363 6.011411854786941 26.80192104734669 1 0 -1
1186 119 2 -0.091672 12.768390367688566 8.729227808046634 25.71750086909289 1 0 -1
718 72 6 0.404798 12.42269058404639 3.7509961519764734 27.63018882882793 0 -1 0
1182 119 3 0.404798 13.669662607726451 6.586147343492732 26.389663870141014 1 0 -1
107 11 5 0.404798 9.83226627491979 0.29221522091458535 28.385086361417567 0 0 0
1029 103 9 -0.358962 13.337190606031015 4.975698999156438 23.89152630631843 0 1 0
451 46 1 -0.091672 5.22780815010309 12.918536235984147 1.6865130719702572 1 -1 0
318 32 6 0.404798 1.4369905135955612 17.483050029194466 4.099860513025302 1 1 0
457 46 5 0.404798 3.191724179028953 11.513115782992825 1.7442389778837142 1 -1 0
456 46 2 -0.091672 4.441250671874555 12.00679698520898 2.2744408419987336 1 -1 0
480 48 10 -0.358962 1.0634064599882733 15.02643118771925 0.8052582091189577 1 0 1
458 46 6 0.404798 4.9183559666937375 11.276968134727626 3.385666061751516 1 -1 0
459 46 9 -0.358962 2.294419003332622 11.041738640508656 1.180105026657973 1 -1 0
316 32 2 -0.091672 2.243614093328054 16.800027269857626 5.096467738579562 1 1 0
1034 104 4 0.404798 9.128363950769982 14.70644842430556 6.644545287803277 0 0 0
452 46 3 0.404798 6.4407701699778555 13.287024637983263 2.3424457504753966 1 -1 0
319 32 9 -0.358962 4.430049521393376 15.694075869800592 4.275683068409402 1 1 0
317 32 5 0.404798 3.457058931825884 16.158255648431002 4.703966216674233 1 1 0
311 32 1 -0.091672 1.9180545931839352 16.840422377267835 6.3956903234005145 1 1 0
1439 144 9 -0.358962 2.38277039390601 12.977088477050149 5.223308879250719 0 -1 0
1437 144 5 0.404798 1.427475508137886 12.330493473916217 5.101133940058319 0 -1 0
639 64 9 -0.358962 6.016530225968852 20.039962130871086 2.6242270770458105 2 -1 1
1417 142 5 0.404798 15.442988973784772 17.985420683079763 4.160136132204957 0 -1 1
312 32 3 0.404798 0.6209834334657295 17.359397147409215 6.922611577101873 1 1 0
453 46 7 -0.358962 7.44826018983 13.461059083374451 2.890420115893319 1 -1 0
382 39 3 0.404798 8.89892220634549 18.608016924574017 6.806559311218289 2 1 1
634 64 4 0.404798 4.900175825074754 20.242797284804347 5.802328245159722 2 -1 1
419 42 9 -0.358962 7.351064534301395 16.93385635657661 3.2807756581599663 1 -1 1
222 23 3 0.404798 15.50336128681501 19.950165804975473 0.008437672831033933 0 2 0
417 42 5 0.404798 7.688128170604561 17.46940351612562 2.3085733386603073 1 -1 1
416 42 2 -0.091672 8.079459201773808 18.148292538986507 1.1178734537286406 1 -1 1
314 32 4 0.404798 2.8796395713997867 16.420219517264446 7.3132726938903705 1 1 0
635 64 8 -0.358962 4.431227864350988 19.18182300909921 5.797702218168154 2 -1 1
460 46 10 -0.358962 5.384230354008149 10.758970688415996 4.3131571621473395 1 -1 0
605 61 8 -0.358962 15.438919435185701 14.11727925401401 1.5784682822419285 -1 -1 2
320 32 10 -0.358962 0.8570555399622377 18.131393064500486 3.332444838582838 1 1 0
1525 153 8 -0.358962 4.022889089299469 17.538680207094856 1.36529455654348 0 0 0
454 46 4 0.404798 4.947736096075537 13.632042559640114 0.4784220144285488 1 -1 0
1035 104 8 -0.358962 8.648219813705957 15.099084385405257 7.624799682008076 0 0 0
602 61 3 0.404798 12.435848767345377 12.598494643852893 0.6442324164213882 -1 -1 2
1480 148 10 -0.358962 5.661601792843884 13.421904339679045 7.6122961231248905 0 0 -1
1604 161 4 0.404798 12.198971559783136 20.697135526026493 5.347744408711943 0 0 1
415 42 8 -0.358962 9.25509120836272 20.709060608881558 3.086732728190618 1 -1 1
1039 104 9 -0.358962 9.279453233780156 11.216381477487671 6.946764213245706 0 0 0
601 61 1 -0.091672 12.956032763423588 13.888001739645697 1.0284528667199622 -1 -1 2
1418 142 6 0.404798 14.2439342874443 15.975834874025669 4.769154936001107 0 -1 1
610 61 10 -0.358962 9.529708452787869 14.427075029163756 0.8035145851481297 -1 -1 2
1031 104 1 -0.091672 9.753828076610588 14.23333236954259 5.423254126098767 0 0 0
1037 104 5 0.404798 9.436501073254869 11.94589631661548 6.058651561500282 0 0 0
1040 104 10 -0.358962 10.672726032620773 11.978239029946144 2.9495002485596307 0 0 0
604 61 4 0.404798 14.318596957230076 13.996689170447063 1.3029041178806176 -1 -1 2
1032 104 3 0.404798 10.223427468993593 15.16012734907808 4.453900530662162 0 0 0
1420 142 10 -0.358962 13.372429093218033 15.224179586652419 4.62392050587222 0 -1 1
383 39 7 -0.358962 8.620092724101193 19.069521350561338 5.779491710420715 2 1 1
1038 104 6 0.404798 10.295036647358536 12.439802711355537 3.944442312956031 0 0 0
1036 104 2 -0.091672 9.732311091409352 12.923958806139616 5.139215519155899 0 0 0
411 42 1 -0.091672 8.636168817130148 19.36392883957435 1.028975120557291 1 -1 1
609 61 9 -0.358962 12.851649681630684 17.20216965817467 1.856226367511076 -1 -1 2
414 42 4 0.404798 8.934923278248037 20.086155721483383 2.162026278137429 1 -1 1
606 61 2 -0.091672 12.061348740809132 14.884132484558261 1.081969743326061 -1 -1 2
1416 142 2 -0.091672 15.34682970475188 16.83083613628732 5.0050523841354 0 -1 1
607 61 5 0.404798 12.477443367746949 16.18304503764198 1.4476255161923264 -1 -1 2
1605 161 8 -0.358962 12.132015228316213 19.80970846290599 6.0917807567340105 0 0 1
1033 104 7 -0.358962 10.570930885666124 15.88695332723177 3.6192956008277704 0 0 0
608 61 6 0.404798 10.653249971839546 14.678229000658016 0.9455580983441056 -1 -1 2
637 64 5 0.404798 6.239451190697815 20.823426126350803 3.4501147935178036 2 -1 1
1436 144 2 -0.091672 0.22596315951745632 11.485651228742265 5.063351146738389 0 -1 0
1524 153 4 0.404798 4.37472817719646 18.09258463623643 0.40873864610255334 0 0 0
1419 142 9 -0.358962 15.533446310549282 18.960193199541767 3.5378531362292223 0 -1 1
69 7 9 -0.358962 0.10459527548366011 14.716403691695476 3.819500301886707 -1 -1 2
603 61 7 -0.358962 12.038280706802876 11.534285803117179 0.40971324557387623 -1 -1 2
478 48 6 0.404798 0.5074747274912533 15.669318892533235 0.01580564593964695 1 0 1
1476 148 2 -0.091672 4.024448947609532 12.76122014170063 9.533684361308955 0 0 -1
1471 148 1 -0.091672 3.2138120342623817 11.700362010324683 9.419457119585651 0 0 -1
1477 148 5 0.404798 3.9878460241784413 13.52629318094835 10.707140099396288 0 0 -1
775 78 8 -0.358962 3.241038363013301 14.744357214516102 14.868062681775505 0 1 0
1479 148 9 -0.358962 3.913719054265484 14.03269622423705 11.748130580345507 0 0 -1
846 85 2 -0.091672 6.407331726902609 16.780117918978217 13.930061536272719 0 1 0
774 78 4 0.404798 3.4180696381309565 13.597947091121442 14.870003301259885 0 1 0
841 85 1 -0.091672 6.436223439925849 15.668286000072186 13.182669293376417 0 1 0
1474 148 4 0.404798 2.216826522116091 11.445833528133543 10.391227572836376 0 0 -1
848 85 6 0.404798 6.3208945180254075 18.057134331926388 13.404789448225177 0 1 0
850 85 10 -0.358962 6.332230510906091 19.106057139632284 12.909579939870254 0 1 0
1348 135 6 0.404798 3.3078109772273043 19.002135523458122 10.439204435209396 0 -1 0
771 78 1 -0.091672 3.6106150334375 12.187465965898108 15.094667795240332 0 1 0
844 85 4 0.404798 6.48238305655018 14.411472618451757 13.83650607575196 0 1 0
845 85 8 -0.358962 6.562066358307282 13.412980140147617 14.421538927581265 0 1 0
773 78 7 -0.358962 4.0936813750143575 10.566924495641118 13.121787956027624 0 1 0
1350 135 10 -0.358962 3.6731569490619598 17.968105087521582 10.817230094133208 0 -1 0
772 78 3 0.404798 3.8392251328115847 11.280082233671116 14.000570138925571 0 1 0
299 30 9 -0.358962 6.37500128722727 10.830281637423465 10.756458336184949 0 1 0
847 85 5 0.404798 6.395836113190067 16.522121278223377 15.35602286294101 0 1 0
842 85 3 0.404798 6.226536322511355 15.751770169057641 11.788385285506973 0 1 0
1478 148 6 0.404798 4.899349970647886 13.21927008924101 8.462890937338685 0 0 -1
1346 135 2 -0.091672 2.810342402359758 20.257548414352506 10.10233543157132 0 -1 0
990 99 10 -0.358962 8.924776680665566 11.05946303326359 13.349236248424123 0 1 -2
1564 157 4 0.404798 0.5630257137888466 14.393668876047352 13.093485687109384 -1 0 1
1472 148 3 0.404798 3.3079219404829625 10.876146311910947 8.310783707169719 0 0 -1
1475 148 8 -0.358962 1.3637931261663236 11.300806892049964 11.163821471201228 0 0 -1
1566 157 2 -0.091672 0.32822029789050355 16.75511313665384 13.512849587484297 -1 0 1
1565 157 8 -0.358962 0.5585357027058997 13.287832106083972 13.443778267622681 -1 0 1
843 85 7 -0.358962 5.957574932746564 15.87747458111098 10.667020854747749 0 1 0
315 32 8 -0.358962 3.743597309164994 16.054871951560646 7.995693520496704 1 1 0
1567 157 5 0.404798 0.3533107464254797 16.424240172129895 14.940868269593157 -1 0 1
1561 157 1 -0.091672 0.5984611272829966 15.784988604361864 12.628865243117566 -1 0 1