LAMMPS data file via write_data, version 29 Sep 2021, timestep = 5000000

1620 atoms
10 atom types
1458 bonds
9 bond types
1620 angles
10 angle types
1944 dihedrals
12 dihedral types

0 31.303 xlo xhi
0 31.303 ylo yhi
0 31.303 zlo zhi

Masses

1 12.01
2 12.01
3 12.01
4 12.01
5 12.01
6 12.01
7 14.01
8 14.01
9 14.01
10 14.01

Bond Coeffs # harmonic

1 400 1.426
2 400 1.426
3 400 1.426
4 400 1.426
5 549 1.34
6 650 1.16
7 650 1.16
8 650 1.16
9 650 1.16

Angle Coeffs # harmonic

1 70 116.8
2 70 116.8
3 70 121.6
4 70 121.6
5 70 121.6
6 70 121.6
7 70 178.9
8 70 178.9
9 70 178.9
10 70 178.9

Dihedral Coeffs # opls

1 0 0 0 0
2 0 0 0 0
3 0 0 0 0
4 0 0 0 0
5 0 0 0 0
6 0 0 0 0
7 0 0 0 0
8 0 0 0 0
9 0 14 0 0
10 0 14 0 0
11 0 14 0 0
12 0 14 0 0

Atoms # full

831 84 1 -0.091672 3.744818185078505 1.760230016192769 4.995159307762984 1 0 0
836 84 2 -0.091672 3.238335681493106 1.3053631873340699 3.8409619059130597 1 0 0
890 89 10 -0.358962 15.52104466585895 6.330285887599115 6.579724857329588 -1 0 -1
1046 105 2 -0.091672 4.097310567773242 10.110289160713744 3.85096947341599 0 0 0
1169 117 9 -0.358962 2.6563406934313654 2.90915192708246 1.0664448832349749 -1 0 0
837 84 5 0.404798 1.8282192409999956 1.1129144601190861 3.6635544795550836 1 0 0
1165 117 8 -0.358962 5.485082356622768 5.052652863454555 2.7359661644425897 -1 0 0
832 84 3 0.404798 5.099322979875496 1.6995354386150625 5.3709546152876095 1 0 0
834 84 4 0.404798 2.8994193496131175 2.2554841610225185 6.08701907224098 1 0 0
1164 117 4 0.404798 5.482869030094108 4.753082842986993 1.6153177339945057 -1 0 0
833 84 7 -0.358962 6.231223433547182 1.6220371301558059 5.612605969579831 1 0 0
1050 105 10 -0.358962 3.4104684958653393 9.042392549190675 6.11651292186935 0 0 0
835 84 8 -0.358962 2.190798876146896 2.729377928549245 6.873709434499058 1 0 0
1205 121 8 -0.358962 1.9435595501121605 5.881616270350445 5.929495243586962 1 0 2
1204 121 4 0.404798 1.1765814930381402 6.500117686832433 5.317285584176962 1 0 2
355 36 8 -0.358962 5.8980162011728465 7.8470724635923474 0.2246286915759886 0 0 1
1043 105 7 -0.358962 2.6559432105927283 7.320152812564521 2.5103516861268136 0 0 0
1167 117 5 0.404798 3.5713529610593384 3.182521863216901 0.4079455054843975 -1 0 0
1042 105 3 0.404798 3.13915321195215 8.374714821917332 2.5130099538846653 0 0 0
1201 121 1 -0.091672 0.14910592498142922 7.216133433636936 4.537419840045147 1 0 2
553 56 7 -0.358962 13.783149816441554 9.509452453679105 0.6263976457321366 -1 1 1
839 84 9 -0.358962 0.7040776241572907 0.8898742221378844 3.48422606993887 1 0 0
556 56 2 -0.091672 11.311031400601484 9.754231674697593 3.1009358474384556 -1 1 1
1476 148 2 -0.091672 6.461213218235926 8.174206920714385 6.6948621548653255 1 1 0
1161 117 1 -0.091672 5.634461528500497 4.32694992494405 0.2851316249176308 -1 0 0
1471 148 1 -0.091672 6.820573235813958 7.3106713366674265 5.73529627733327 1 1 0
404 41 4 0.404798 15.290543495545567 4.4031850065276 1.7142675068791107 0 1 0
1477 148 5 0.404798 6.469806779175895 9.600575162741539 6.521110064124492 1 1 0
552 56 3 0.404798 13.115438651311443 9.94479781894336 1.4691527783982696 -1 1 1
1473 148 7 -0.358962 6.5482189526305685 4.753430415302383 6.187266126633738 1 1 0
1472 148 3 0.404798 6.650235698500596 5.8882762661304975 5.969740311838049 1 1 0
1474 148 4 0.404798 7.32664638606484 7.826720226320685 4.49363716597898 1 1 0
1048 105 6 0.404798 3.6880937521368478 9.536481028922086 5.1043860558915375 0 0 0
895 90 8 -0.358962 0.2548595608710776 9.87230950891532 1.6775280777231194 0 1 0
894 90 4 0.404798 0.4663393962821028 10.380661714284022 0.6565215544623585 0 1 0
1041 105 1 -0.091672 3.8542056768006963 9.58175396888953 2.6438445560757518 0 0 0
626 63 2 -0.091672 10.360625618168312 3.118983291463468 1.4086853833038198 -1 0 2
883 89 7 -0.358962 13.179628196989102 3.0259091571877 5.7069755869557754 -1 0 -1
405 41 8 -0.358962 15.255055601055918 3.895279606399126 2.7565595554210565 0 1 0
560 56 10 -0.358962 10.56197683856035 7.618965748542694 1.9849412774748567 -1 1 1
450 45 10 -0.358962 9.661631949488807 2.256058812617987 5.206890218835575 1 1 1
888 89 6 0.404798 14.375866506037598 6.422062108312795 6.4192751487977455 -1 0 -1
705 71 8 -0.358962 13.799811516032829 1.1048491105047051 2.8996686491755264 1 0 0
558 56 6 0.404798 10.865705626759132 8.61733520557575 2.491505441246005 -1 1 1
704 71 4 0.404798 14.25973486694671 0.6912740870725071 3.8810076383801126 1 0 0
882 89 3 0.404798 12.749356857770461 4.102647405488012 5.673789419975074 -1 0 -1
630 63 10 -0.358962 7.913229170299886 2.869440923154894 2.102998325801856 -1 0 2
627 63 5 0.404798 11.309385677036978 3.830816682462133 2.227129054838587 -1 0 2
448 45 6 0.404798 9.324850829503564 1.248847307811649 5.673477259495464 1 1 1
130 13 10 -0.358962 15.103424293737046 9.731190330244276 7.07174431861676 -1 1 0
887 89 5 0.404798 12.41041574523133 7.7473395835881105 6.188659693672761 -1 0 -1
889 89 9 -0.358962 12.059859930117852 8.851482607407497 6.248482807040619 -1 0 -1
628 63 6 0.404798 9.045148137082936 2.967856957079987 1.8691741659072154 -1 0 2
886 89 2 -0.091672 12.928496601263658 6.470586768225418 6.205296730810819 -1 0 -1
881 89 1 -0.091672 12.180994922829825 5.405698610871575 5.884587432577699 -1 0 -1
1475 148 8 -0.358962 7.685864620446552 8.12950142001133 3.4330308252872026 1 1 0
838 84 6 0.404798 4.034980182380067 0.6750598648228918 2.8609286205920603 1 0 0
885 89 8 -0.358962 9.693856313030278 5.671475623121171 5.566261473804678 -1 0 -1
884 89 4 0.404798 10.833432620619952 5.480182060224948 5.668107501531107 -1 0 -1
621 63 1 -0.091672 10.652626297945494 2.5467214009890196 0.23273813438275331 -1 0 2
629 63 9 -0.358962 11.994712282417577 4.337307180550741 3.014145459148416 -1 0 2
701 71 1 -0.091672 14.697090603031329 0.209653102819891 5.153636841868519 1 0 0
840 84 10 -0.358962 4.889505702180121 0.2439801449603681 2.2055230883753456 1 0 0
401 41 1 -0.091672 15.313273546949713 4.865597098840198 0.3415978396331255 0 1 0
1044 105 4 0.404798 4.15605607367994 10.24918724452762 1.4081771940208918 0 0 0
551 56 1 -0.091672 12.33758079556136 10.422912356520088 2.5581076189837595 -1 1 1
1119 112 9 -0.358962 5.3077917621320605 9.601213106263499 12.41442639775982 0 0 1
1192 120 3 0.404798 6.681195319465279 5.264852295775597 11.024280026949217 0 0 1
1193 120 7 -0.358962 5.830463514330398 5.510682625024221 11.77356158008858 0 0 1
1117 112 5 0.404798 5.607909218625329 8.938732796144896 13.318112933069356 0 0 1
1116 112 2 -0.091672 5.818105365390866 8.138453110509541 14.456998380907715 0 0 1
230 23 10 -0.358962 3.581815546127791 3.0063100074927145 11.729446095367365 1 1 0
1111 112 1 -0.091672 6.91068210861959 8.220039550323543 15.228503218167075 0 0 1
1618 162 6 0.404798 7.493542109305289 1.0547837640285338 12.014305457039278 1 2 -1
221 23 1 -0.091672 2.473393180616087 5.647830065523987 9.717639062624128 1 1 0
228 23 6 0.404798 3.030496869681089 3.9678799591114355 11.38734822851791 1 1 0
1501 151 1 -0.091672 12.889603014621155 9.50231562266821 15.205517370648572 1 -1 1
1118 112 6 0.404798 4.956562712478367 7.077219161232463 14.584489064223375 0 0 1
163 17 7 -0.358962 0.8719234344833202 2.956181566708677 14.864293005282786 1 0 -1
226 23 2 -0.091672 2.2512993830226313 5.037871668697408 10.889912538261042 1 1 0
162 17 3 0.404798 1.9486642794565139 2.5246616319145647 14.868731395794297 1 0 -1
939 94 9 -0.358962 1.1952330065846168 8.999419870239375 14.350622329417178 1 0 -1
164 17 4 0.404798 4.43961605383733 2.341181212009576 15.224190610770044 1 0 -1
161 17 1 -0.091672 3.1563315210247795 1.735192043629837 14.892716921057072 1 0 -1
201 21 1 -0.091672 15.36906212696762 5.946704954059179 14.461697658223848 0 0 -1
227 23 5 0.404798 1.3617125218405652 5.514153245771339 11.861393822385876 1 1 0
1114 112 4 0.404798 7.825701867077197 9.340480293040624 15.02687686608248 0 0 1
1213 122 7 -0.358962 7.6494285534934345 4.695489728288826 13.987612609373642 1 0 0
368 37 6 0.404798 1.042871753588673 0.8506724100251432 10.830560383725944 1 0 0
224 23 4 0.404798 1.7290914188865436 6.828287683681845 9.386079608374441 1 1 0
225 23 8 -0.358962 0.965150756492736 7.683454214393007 9.210908635801353 1 1 0
222 23 3 0.404798 3.3939917837347755 5.085765824155707 8.805598389454293 1 1 0
1191 120 1 -0.091672 7.8040071150117605 4.980821306918577 10.137138836709159 0 0 1
1194 120 4 0.404798 7.715225068398265 3.891156641625104 9.204043719630231 0 0 1
262 27 3 0.404798 13.831545841176355 2.121728595438157 12.397610538044173 0 1 0
229 23 9 -0.358962 0.6245666788523225 5.913981437707354 12.662863362138225 1 1 0
1620 162 10 -0.358962 7.464991943365129 2.1893168368088713 12.254346277192045 1 2 -1
1480 148 10 -0.358962 5.505929184937661 7.525835598640077 8.980875232079363 1 1 0
1195 120 8 -0.358962 7.738740402701763 3.0538158116073033 8.401605332815155 0 0 1
223 23 7 -0.358962 4.176218048948288 4.488909763078948 8.191200380676895 1 1 0
205 21 8 -0.358962 14.336013957926617 5.368569767598766 12.147710081099643 0 0 -1
204 21 4 0.404798 14.802688721593267 5.582274149814853 13.187972116627087 0 0 -1
1478 148 6 0.404798 5.92927222434118 7.733977689294702 7.92113113975008 1 1 0
264 27 4 0.404798 14.912782430328697 1.1790856638737568 10.428300365733483 0 1 0
1120 112 10 -0.358962 4.288641719684223 6.132035144284378 14.50633074808293 0 0 1
633 64 7 -0.358962 15.482431708029065 10.113820092798882 12.550926111339088 1 0 1
1197 120 5 0.404798 10.178514215696046 5.196265332451766 9.595548183001286 0 0 1
261 27 1 -0.091672 13.688044395847541 1.6150542039964364 11.106083459646573 0 1 0
1115 112 8 -0.358962 8.557899364837313 10.203669661648878 14.773123164570901 0 0 1
263 27 7 -0.358962 13.858981333895183 2.6592856091291766 13.425170635763445 0 1 0
1504 151 4 0.404798 12.967035779005647 8.688965885182713 14.027599319502654 1 -1 1
1218 122 6 0.404798 10.986682621299897 4.613039618517886 14.618984147574432 1 0 0
270 27 10 -0.358962 10.504995855699487 2.8419729549270625 11.635769074668934 0 1 0
1343 135 7 -0.358962 8.920144391738942 9.959132450651815 8.287917426305672 0 0 0
1212 122 3 0.404798 8.329337607903243 4.292822018043529 14.836837195534535 1 0 0
1250 125 10 -0.358962 7.969633366042555 0.8741496434388795 15.360718204376136 1 0 1
268 27 6 0.404798 11.41038352661663 2.386996845509655 11.07108340163344 0 1 0
1505 151 8 -0.358962 12.937800791941282 7.9618556617214375 13.124241118556784 1 -1 1
529 53 9 -0.358962 4.181808459115466 10.334282078989501 8.67715195606939 0 1 1
863 87 7 -0.358962 14.310831609425657 4.0130890935339405 8.635354028021412 0 -1 1
1199 120 9 -0.358962 11.159630789310793 4.924780861213659 9.039394913188161 0 0 1
1509 151 9 -0.358962 10.156941929578464 7.405251608543577 15.623102580091707 1 -1 1
1220 122 10 -0.358962 11.322964137804316 5.06042668546153 13.60293318386437 1 0 0
1196 120 2 -0.091672 8.995419263643914 5.561261229500386 10.335195870865341 0 0 1
267 27 5 0.404798 12.561747337559003 1.439482228625426 9.09677624756213 0 1 0
266 27 2 -0.091672 12.558967016916192 1.841164566692545 10.420767199094119 0 1 0
1198 120 6 0.404798 9.255109562705414 6.505850706727644 11.35505503348306 0 0 1
1200 120 10 -0.358962 9.378841459926965 7.322559297759379 12.169473536470457 0 0 1
1348 135 6 0.404798 12.07355112113843 9.080773987611238 9.248083225294835 0 0 0
1350 135 10 -0.358962 11.999629089138626 7.946459984659771 9.479313147464891 0 0 0
370 37 10 -0.358962 0.6944763950376832 1.8050664253504194 11.390339571109328 1 0 0
166 17 2 -0.091672 3.177850852772333 0.4731457453321461 14.442854652130967 1 0 -1
202 21 3 0.404798 14.344114249833572 6.217942957350087 15.384601438873899 0 0 -1
269 27 9 -0.358962 12.68189470321752 1.1398709250657404 7.9825959752756 0 1 0
369 37 9 -0.358962 3.5330579330240326 0.41239291489750357 8.709377895477393 1 0 0
367 37 5 0.404798 2.5347897536803203 0.10605783950348738 9.214570399163723 1 0 0
862 87 3 0.404798 15.433064176439505 4.146639735042452 8.896808215275195 0 -1 1
449 45 9 -0.358962 8.79571098698274 0.06959469440312915 8.720755135448256 1 1 1
937 94 5 0.404798 1.1865459270378975 8.896486749574828 15.506013739412783 1 0 -1
165 17 8 -0.358962 5.491433599444699 2.7918318253634284 15.414437491003904 1 0 -1
1306 131 2 -0.091672 3.931467604820637 3.998082032681034 20.25931940990747 0 0 -1
1301 131 1 -0.091672 4.9765965352053945 4.752184165419165 19.892392311351166 0 0 -1
1308 131 6 0.404798 4.035016994014194 2.899602588717515 21.18312238216722 0 0 -1
1307 131 5 0.404798 2.5890221336245043 4.428687278564467 19.8534703419632 0 0 -1
504 51 4 0.404798 4.103097776732613 9.81201140562351 19.238505140836036 1 0 0
1310 131 10 -0.358962 4.1381820807509895 1.9766649573084518 21.878207336763573 0 0 -1
507 51 5 0.404798 4.934499811906077 9.760185126855342 22.170642682341374 1 0 0
1304 131 4 0.404798 4.792107291801039 5.422546915059548 18.6517882058665 0 0 -1
505 51 8 -0.358962 4.103703798152619 8.820961827211262 18.63566157293009 1 0 0
1309 131 9 -0.358962 1.5010979651306013 4.651957754119693 19.518550498839208 0 0 -1
1305 131 8 -0.358962 4.589519745150128 5.889708187393599 17.609522100016466 0 0 -1
1302 131 3 0.404798 6.294483742838749 4.554861818395817 20.374510463082725 0 0 -1
603 61 7 -0.358962 3.459790102672405 5.838177719771174 22.982934956926734 1 0 -1
938 94 6 0.404798 1.2103727068299368 10.097239830805577 17.616695867494908 1 0 -1
936 94 2 -0.091672 1.1165394884961357 8.86473659245887 16.996061655573193 1 0 -1
932 94 3 0.404798 1.2069026171480326 7.691271706316809 19.07403028893266 1 0 -1
931 94 1 -0.091672 1.170665146120035 7.732439230189717 17.710605635073687 1 0 -1
933 94 7 -0.358962 1.3360482832023173 7.60418477056383 20.22352464008349 1 0 -1
934 94 4 0.404798 1.2377240952917148 6.4708974686717315 16.975657909805896 1 0 -1
240 24 10 -0.358962 2.4122434161033257 1.4651695735131607 18.475989176961274 0 0 0
1303 131 7 -0.358962 7.409148691530551 4.388394370216436 20.64912044371762 0 0 -1
1585 159 8 -0.358962 10.333743237239261 0.585674167146828 18.044534133759505 1 1 0
299 30 9 -0.358962 15.454838248662044 5.064509365795306 19.69898615659698 0 0 0
854 86 4 0.404798 14.108348513969396 2.1257000967770447 22.965032751280322 0 1 -1
1113 112 7 -0.358962 7.558811961533704 6.584415578938683 17.12468357307001 0 0 1
1249 125 9 -0.358962 5.688483977102865 1.273620112262317 19.038281733294493 1 0 1
1211 122 1 -0.091672 9.166621902425636 3.8803241329837403 15.889864110560357 1 0 0
935 94 8 -0.358962 1.300191632317171 5.487841561497066 16.363041479853152 1 0 -1
238 24 6 0.404798 1.3264279870869304 1.1083627241241634 18.674215632117786 0 0 0
1247 125 5 0.404798 6.209688097044291 0.533942510972095 18.31245578183456 1 0 1
509 51 9 -0.358962 5.365813827137592 8.91360023590484 22.836121640297254 1 0 0
1112 112 3 0.404798 7.233232101439704 7.318238044908511 16.287365028838693 0 0 1
434 44 4 0.404798 0.08117951607541585 3.6174255432084603 22.140662631042396 0 0 0
1216 122 2 -0.091672 10.499801072541018 4.00246126696092 15.832280937343755 1 0 0
1581 159 1 -0.091672 10.812376008071146 0.5472518388619714 20.541605691695526 1 1 0
1248 125 6 0.404798 7.490145178545176 0.2723577522851059 16.228783638527812 1 0 1
1506 151 2 -0.091672 11.75894385214839 9.400428212960149 15.917436477859912 1 -1 1
319 32 9 -0.358962 13.42597164741136 0.8153410173038295 17.272201761997074 0 1 -1
1582 159 3 0.404798 9.880822823605888 1.0879814481757197 21.472788798904947 1 1 0
42 5 3 0.404798 7.932114496736685 8.605330199150552 20.850891458146265 0 0 0
1508 151 6 0.404798 11.340089703784082 10.276316472744652 16.93829052969274 1 -1 1
41 5 1 -0.091672 8.614084290873107 7.591671144197251 21.461368975605 0 0 0
48 5 6 0.404798 10.125400591760473 7.304748295846632 19.630278715668247 0 0 0
1584 159 4 0.404798 10.539959978038189 0.6039655330173778 19.185910531948092 1 1 0
43 5 7 -0.358962 7.350776432541611 9.45957800501352 20.32372284828568 0 0 0
46 5 2 -0.091672 9.61367251925772 6.9059765719339135 20.890189202425137 0 0 0
44 5 4 0.404798 8.232325427535752 7.314868922309843 22.769002120696907 0 0 0
1034 104 4 0.404798 14.433862793868892 8.812480134046254 21.28092072607677 0 -1 -1
1215 122 8 -0.358962 7.901273213033821 3.040662807838881 18.069812546267226 1 0 0
855 86 8 -0.358962 14.287296062831357 2.0138255350213257 21.82439176421067 0 1 -1
47 5 5 0.404798 10.402559802638171 5.9816604196159044 21.77098351744068 0 0 0
1583 159 7 -0.358962 9.17116146208818 1.424103003506901 22.32660555466509 1 1 0
1214 122 4 0.404798 8.441924044695583 3.3897180066067993 17.104692270401223 1 0 0
435 44 8 -0.358962 0.5017321988790854 2.575946487843516 21.850737089032915 0 0 0
50 5 10 -0.358962 10.51863720064551 7.510615311128433 18.558558723296017 0 0 0
1219 122 9 -0.358962 11.876038810183587 3.614879610563616 18.015111153082543 1 0 0
49 5 9 -0.358962 11.11357062054989 5.344671020293116 22.43000409699662 0 0 0
1035 104 8 -0.358962 13.462386054538065 8.880419011693176 21.911172465114443 0 -1 -1
1217 122 5 0.404798 11.285903141790232 3.722488444766042 17.022256565517676 1 0 0
203 21 7 -0.358962 13.547534800032098 6.432582424323731 16.200071292677126 0 0 -1
1507 151 5 0.404798 10.85066268307418 8.323384640363882 15.7693327168899 1 -1 1
300 30 10 -0.358962 15.526494638223882 2.6731921042976805 16.02281466965795 0 0 0
606 61 2 -0.091672 4.9537720062090385 5.913810623372769 26.148616412057198 1 0 -1
1337 134 5 0.404798 2.78488791066657 2.1322413625925525 25.643036297678794 0 1 -1
1339 134 9 -0.358962 3.237352641601483 2.731128328321944 24.758609890523356 0 1 -1
601 61 1 -0.091672 3.8807341862484264 6.33687249359934 25.466554470610706 1 0 -1
604 61 4 0.404798 2.8990635097402855 7.092223034786793 26.14385343357296 1 0 -1
607 61 5 0.404798 5.007604551693427 6.1584119457010855 27.539266443658025 1 0 -1
609 61 9 -0.358962 5.056554856772228 6.3766442924474225 28.67750126597124 1 0 -1
1170 117 10 -0.358962 4.547442904188305 3.049239047727699 28.443643466116686 -1 0 -1
1336 134 2 -0.091672 2.093590851006724 1.427923615362965 26.64130073148982 0 1 -1
1338 134 6 0.404798 0.9318981508391531 2.2204224910257566 27.033328946882463 0 1 -1
605 61 8 -0.358962 2.086778127165005 7.732754342247555 26.668745901475273 1 0 -1
1168 117 6 0.404798 4.648904477576561 3.3656294195677416 29.55504019272823 -1 0 -1
899 90 9 -0.358962 2.9271663772614924 8.212418128185965 30.629258530649896 0 1 -1
897 90 5 0.404798 2.28797801793339 9.094841663128866 30.231305082088777 0 1 -1
602 61 3 0.404798 3.6782623851877774 6.08945962802462 24.09411778007062 1 0 -1
425 43 8 -0.358962 14.004239931150954 5.331197453621978 25.926446331451174 -1 0 -1
356 36 2 -0.091672 7.027243250035345 9.615492992984093 28.864574775008656 0 0 0
608 61 6 0.404798 6.038012658527048 5.129684693149742 25.606172487537354 1 0 -1
622 63 3 0.404798 9.738540248266856 1.9895110567332999 30.60811593318274 -1 0 1
1565 157 8 -0.358962 1.1860374912032252 1.573307275391365 30.435329658321898 1 0 0
1331 134 1 -0.091672 2.3840616858294457 0.2160740367784733 27.13389315259495 0 1 -1
610 61 10 -0.358962 6.938329324920174 4.504822956523091 25.22593872718812 1 0 -1
432 44 3 0.404798 0.07127793655579179 5.490033172587822 23.72863883437302 0 0 0
623 63 7 -0.358962 9.052287262918005 1.3957523661602071 29.88554589555994 -1 0 1
403 41 7 -0.358962 13.214116185840345 6.1838151621978446 30.923603492601814 0 1 -1
354 36 4 0.404798 6.625370358611281 8.373291848506588 30.793020572187913 0 0 0
1574 158 4 0.404798 1.2945975314169726 9.91677048651607 23.985901193741153 0 0 0
433 44 7 -0.358962 0.5310671273340288 5.864928157880446 24.725457599648507 0 0 0
896 90 2 -0.091672 1.652486563111783 10.308002592317056 29.882483147175588 0 1 -1
1163 117 7 -0.358962 7.749830048751858 5.307146826967478 30.4082841412866 -1 0 -1
329 33 9 -0.358962 11.051174462987879 0.5731336316281875 27.680899474462613 0 0 0
45 5 8 -0.358962 7.844922244795529 7.309234274073289 23.862385413587962 0 0 0
323 33 7 -0.358962 6.079306462067029 1.2999370976457671 24.525641410243203 0 0 0
325 33 8 -0.358962 7.636834426672575 3.3822840265121266 28.102849542239806 0 0 0
322 33 3 0.404798 6.939540282809431 1.418547781003908 25.294750821050588 0 0 0
324 33 4 0.404798 7.750989039333335 2.5215635538359944 27.333610312399042 0 0 0
1575 158 8 -0.358962 2.2676766653723655 9.33113770617016 23.74978417388585 0 0 0
327 33 5 0.404798 10.16842844998837 0.7382979518450289 26.946678646556368 0 0 0
1166 117 2 -0.091672 4.652828664927242 3.6594949650813042 30.966439739787813 -1 0 -1
860 86 10 -0.358962 14.524796964227429 2.481840647284536 27.877894030462656 0 1 -1
326 33 2 -0.091672 9.09018233001595 0.8239668754836678 26.08956491593904 0 0 0
853 86 7 -0.358962 11.366186841291308 2.838284922456635 24.869746459463606 0 1 -1
851 86 1 -0.091672 13.818683008048035 2.2781687905629173 24.37736479987201 0 1 -1
624 63 4 0.404798 11.957335200940806 2.648776818613216 30.91365692477272 -1 0 1
351 36 1 -0.091672 7.546596252764514 9.018634797609591 29.946070384507077 0 0 0
426 43 2 -0.091672 10.750988373731436 6.158572981474686 26.788186953914078 -1 0 -1
427 43 5 0.404798 11.034077726197733 5.019630899612061 27.603733434195274 -1 0 -1
423 43 7 -0.358962 11.233267649552317 8.571999963120632 24.387798759785465 -1 0 -1
856 86 2 -0.091672 14.719304407371233 2.0092075206715085 25.332425497544843 0 1 -1
825 83 8 -0.358962 12.331342653372726 9.361663007425348 27.730119360371233 0 0 0
625 63 8 -0.358962 13.013347954953957 2.6790939974118637 30.43457662630013 -1 0 1
858 86 6 0.404798 14.60627843697447 2.2269645786092265 26.749178406738604 0 1 -1
428 43 6 0.404798 9.487297319745247 6.710237431348583 26.96347161409579 -1 0 -1
424 43 4 0.404798 13.030483691282868 5.96150138014397 25.915687800523596 -1 0 -1
429 43 9 -0.358962 11.236144598573757 4.04231212971857 28.19501763088204 -1 0 -1
352 36 3 0.404798 9.030315958313865 8.968792355440696 30.243335949367268 0 0 0
422 43 3 0.404798 11.52237992165703 7.766911311166498 25.17128223583567 -1 0 -1
430 43 10 -0.358962 8.442005001848958 7.170106743747632 27.167148287094765 -1 0 -1
321 33 1 -0.091672 7.966361711538926 1.521714659756491 26.30351642536263 0 0 0
421 43 1 -0.091672 11.762189078094831 6.681079319566575 26.081037561256572 -1 0 -1
852 86 3 0.404798 12.484655380569665 2.6231111772477713 24.649909274522756 0 1 -1
357 36 5 0.404798 5.644841677015877 9.638965689260893 28.621944977557586 0 0 0
359 36 9 -0.358962 4.508355970144634 9.785491399413553 28.44158296638829 0 0 0
358 36 6 0.404798 7.87493130941119 10.275179665805643 27.922632315724304 0 0 0
353 36 7 -0.358962 10.160985358164979 8.834191200954248 30.464851723290526 0 0 0
1340 134 10 -0.358962 0.04646523650073971 2.87627936125595 27.395903521457384 0 1 -1
9 1 9 -0.358962 15.577001265294676 9.346524942610873 28.83601247304132 2 2 0
1162 117 3 0.404798 6.763160731374754 4.913336468488039 30.874113575023888 -1 0 -1
402 41 3 0.404798 14.193688637227206 5.655448882866964 31.250508506256516 0 1 -1
1564 157 4 0.404798 0.0941429923079724 1.956334172434096 30.353740446291187 1 0 0
824 83 4 0.404798 12.283154474753449 10.360050793474858 28.31876163567365 0 0 0
96 10 2 -0.091672 1.2648220572174795 16.615218721018763 2.4223469908229838 0 -1 0
91 10 1 -0.091672 1.807626131434302 16.13924436412908 1.2934483466372813 0 -1 0
92 10 3 0.404798 2.0142123599716526 14.787102908903531 1.2430393550206167 0 -1 0
97 10 5 0.404798 1.072255970464565 18.01807386205931 2.6125012996634034 0 -1 0
93 10 7 -0.358962 2.1578980088313506 13.636270459043956 1.219820682778601 0 -1 0
925 93 8 -0.358962 10.306306350788525 17.233961822804822 0.3987642001700537 0 0 1
1045 105 8 -0.358962 4.322914244595943 10.89846169763578 0.46149824111056115 0 0 0
1289 129 9 -0.358962 15.15690291942941 13.28610349786319 0.6852864043448217 0 0 0
1049 105 9 -0.358962 5.005715758064669 12.53347055853648 4.140988214994087 0 0 0
155 16 8 -0.358962 4.129450041511308 18.507088014550025 5.3338039081457005 1 -1 0
1047 105 5 0.404798 4.613440535399782 11.45454068389607 3.9747640423973696 0 0 0
525 53 8 -0.358962 1.7975476155713397 12.117609508659818 6.293187914888639 0 1 1
1364 137 4 0.404798 4.58246204119489 15.476027922543356 4.513738910421461 0 0 0
1365 137 8 -0.358962 4.714839985630221 15.747929532315746 3.3938524897431663 0 0 0
1285 129 8 -0.358962 15.477785403291945 15.26688221436579 4.2594332035375695 0 0 0
1361 137 1 -0.091672 4.555268580000047 15.255439630835745 5.949789000939681 0 0 0
1362 137 3 0.404798 3.394195136707586 15.597791091906963 6.7099663147167625 0 0 0
997 100 5 0.404798 15.116575042906614 15.638032831300544 7.417168471525843 -2 1 -1
1363 137 7 -0.358962 2.457580604680559 15.633715584108318 7.393386134915766 0 0 0
1366 137 2 -0.091672 5.6112333506839445 14.692010628466793 6.55235531468194 0 0 0
154 16 4 0.404798 4.182275773115397 19.648634883500804 5.134605032877706 1 -1 0
1094 110 4 0.404798 5.694621546958483 14.156294384080702 0.3099601718615994 -1 -1 1
1367 137 5 0.404798 6.8029654573975495 14.269707618902773 5.8466267050639 0 0 0
98 10 6 0.404798 1.0158137004763566 15.829790791627536 3.522014523482905 0 -1 0
1479 148 9 -0.358962 6.5257628669761125 10.734997862883668 6.285410987831392 1 1 0
790 79 10 -0.358962 0.3266621964697535 12.163340341185526 3.5947352119651645 0 0 0
982 99 3 0.404798 8.036112403361468 18.267709003106102 4.956556965229211 1 -1 0
100 10 10 -0.358962 0.7635612194711471 15.183299066610356 4.451539744065188 0 -1 0
69 7 9 -0.358962 6.482070508111553 20.21324179554054 7.270332005017722 0 0 1
983 99 7 -0.358962 7.006445027597632 17.733496264091116 4.957915961346255 1 -1 0
159 16 9 -0.358962 4.555290875942283 20.62282917610229 1.4546322171733725 1 -1 0
990 99 10 -0.358962 8.546294694377545 19.94065216779305 1.6189756559338688 1 -1 0
99 10 9 -0.358962 0.8860636538400927 19.12362960615848 2.910291359856019 0 -1 0
94 10 4 0.404798 2.1118854501639013 17.007170584482886 0.1439160604734348 0 -1 0
988 99 6 0.404798 9.016984510765223 19.898514873134314 2.6783507292694586 1 -1 0
559 56 9 -0.358962 9.853294787252084 11.190207622366385 4.669226541987721 -1 1 1
557 56 5 0.404798 10.494669234809354 10.464276693282015 4.031054851724584 -1 1 1
1286 129 2 -0.091672 15.582406951762438 15.868202013104906 0.8178486312522188 0 0 0
1284 129 4 0.404798 15.635969401694046 15.735264606585217 3.2100544543523486 0 0 0
1287 129 5 0.404798 15.342733527916014 14.427928062967915 0.7707478021429948 0 0 0
1091 110 1 -0.091672 7.118170059872414 13.998959774686718 0.5726809230300134 -1 -1 1
986 99 2 -0.091672 9.6840385507202 19.810565498537304 3.9714341390534345 1 -1 0
555 56 8 -0.358962 13.02169080633937 12.71883447907146 3.3386594284234565 -1 1 1
1092 110 3 0.404798 7.645185724141924 12.692656613600507 0.26440926352255933 -1 -1 1
524 53 4 0.404798 1.4563886746970744 12.15158429417771 7.401364929995296 0 1 1
985 99 8 -0.358962 10.43385698233472 19.06077365229226 7.273761195886768 1 -1 0
1097 110 5 0.404798 7.310674921075724 16.306166313063365 1.4964780045695492 -1 -1 1
1135 114 8 -0.358962 0.7807536506185563 18.038377558637183 5.887099154147767 0 0 0
994 100 4 0.404798 13.017789523323922 13.731300608569502 6.634600421020689 -2 1 -1
1000 100 10 -0.358962 13.470425785898694 18.5271388629724 6.903519042925405 -2 1 -1
984 99 4 0.404798 9.887829413029925 19.073680392522483 6.250390632370907 1 -1 0
987 99 5 0.404798 10.806178338703543 20.628274481958282 4.030185551997428 1 -1 0
1099 110 9 -0.358962 6.826903753551991 17.351339498383766 1.6349643596144279 -1 -1 1
993 100 7 -0.358962 10.572377088802993 15.996010583142917 5.820450185123237 -2 1 -1
1369 137 9 -0.358962 7.806290021654886 13.927716050824626 5.37547748651891 0 0 0
996 100 2 -0.091672 13.874797513389623 15.979159291133119 6.91710830801954 -2 1 -1
991 100 1 -0.091672 12.89874864956391 15.111871631017273 6.615876287438145 -2 1 -1
998 100 6 0.404798 13.687640465095544 17.3877438270509 6.917545294344737 -2 1 -1
992 100 3 0.404798 11.572714768927522 15.569396855678335 6.224090189845452 -2 1 -1
995 100 8 -0.358962 13.242110934149514 12.593933039465858 6.67552618948443 -2 1 -1
1096 110 2 -0.091672 7.852583257879816 14.927715037412261 1.2000969868387836 -1 -1 1
1100 110 10 -0.358962 10.280697659863884 14.267957036438915 1.6199751080591096 -1 -1 1
1098 110 6 0.404798 9.215881908906042 14.6872670322048 1.4303793692751903 -1 -1 1
554 56 4 0.404798 12.65557763546769 11.691605289985334 2.9432339096223274 -1 1 1
981 99 1 -0.091672 9.238666115150824 19.09171050435985 5.010900777567531 1 -1 0
1296 130 2 -0.091672 3.3033715980340643 18.76965192276973 11.864492869962216 1 -1 1
1298 130 6 0.404798 2.9035286591907377 18.504131450057315 13.199668747599647 1 -1 1
1292 130 3 0.404798 2.714777510939534 16.621593552165468 11.116556508382939 1 -1 1
1291 130 1 -0.091672 3.348101607996703 17.859660382121998 10.881886833293835 1 -1 1
1294 130 4 0.404798 3.977322281116693 18.088742810642163 9.63257762174791 1 -1 1
1293 130 7 -0.358962 2.218888123639673 15.5934591115502 11.323034809447572 1 -1 1
389 39 9 -0.358962 5.961911888471451 16.56033145132524 12.312810975717486 0 0 1
387 39 5 0.404798 6.826444426235376 15.78690825173506 12.312596044185657 0 0 1
528 53 6 0.404798 2.058322542862325 11.493051584080952 10.987245201165566 0 1 1
816 82 2 -0.091672 1.255593212947846 13.40648594512535 14.99491788488749 1 2 1
526 53 2 -0.091672 2.068986112443128 11.511125314077457 9.567616093376001 0 1 1
1383 139 7 -0.358962 2.010806217115084 20.504403427561563 9.384694059083404 1 0 1
522 53 3 0.404798 0.17340201544104414 13.074759790749658 9.333611274756812 0 1 1
1297 130 5 0.404798 4.172324351041393 19.892337450276145 11.743908997471161 1 -1 1
811 82 1 -0.091672 2.5566778494273255 13.104714255726236 15.103142739311792 1 2 1
384 39 4 0.404798 6.221710317072522 13.104495089437549 11.948848160176455 0 0 1
385 39 8 -0.358962 5.108258275346962 12.77948079952564 11.935054512927822 0 0 1
530 53 10 -0.358962 1.9496492472161508 11.61969199601069 12.135179137094438 0 1 1
815 82 8 -0.358962 4.38302000848563 14.827622363811864 14.62151088279358 1 2 1
814 82 4 0.404798 3.5881302667358526 13.992985644429506 14.75239955901875 1 2 1
1370 137 10 -0.358962 5.828362716447275 14.33615543509346 9.119170375487723 0 0 0