LAMMPS data file via write_data, version 29 Sep 2021, timestep = 1000000

1600 atoms
10 atom types
1440 bonds
9 bond types
1600 angles
10 angle types
1920 dihedrals
12 dihedral types

0 33.607 xlo xhi
0 30.06 ylo yhi
0 26.8624861463132 zlo zhi
1.84064413911847e-15 -4.51934044293291 1.94469873082344e-15 xy xz yz

Masses

1 12.01
2 12.01
3 12.01
4 12.01
5 12.01
6 12.01
7 14.01
8 14.01
9 14.01
10 14.01

Pair Coeffs # lj/cut/coul/long

1 0.076 3.55
2 0.076 3.55
3 0.066 3.3
4 0.066 3.3
5 0.066 3.3
6 0.066 3.3
7 0.17 3.2
8 0.17 3.2
9 0.17 3.2
10 0.17 3.2

Bond Coeffs # harmonic

1 400 1.426
2 400 1.426
3 400 1.426
4 400 1.426
5 549 1.34
6 650 1.16
7 650 1.16
8 650 1.16
9 650 1.16

Angle Coeffs # harmonic

1 70 116.8
2 70 116.8
3 70 121.6
4 70 121.6
5 70 121.6
6 70 121.6
7 70 178.9
8 70 178.9
9 70 178.9
10 70 178.9

Dihedral Coeffs # opls

1 0 0 0 0
2 0 0 0 0
3 0 0 0 0
4 0 0 0 0
5 0 0 0 0
6 0 0 0 0
7 0 0 0 0
8 0 0 0 0
9 0 14 0 0
10 0 14 0 0
11 0 14 0 0
12 0 14 0 0

Atoms # full

482 49 3 0.404798 4.043701394483503 9.260754453314119 8.654937228035998 0 0 0
478 48 6 0.404798 -2.0413845610860415 7.658786172101554 12.161044842575077 1 0 0
13 2 7 -0.358962 5.957475569349617 7.1572399419888875 9.579080259148544 0 0 0
76 8 2 -0.091672 -0.5880824240369289 6.461128031293667 6.2910862530833755 1 0 0
333 34 7 -0.358962 5.971413768704376 1.2739840569986955 9.007752989004919 0 1 0
81 9 1 -0.091672 3.9898135932763137 8.636602671613705 3.3183552642931264 0 0 0
155 16 8 -0.358962 0.08499688147885731 9.566013574154136 8.440089425914277 1 0 0
1355 136 8 -0.358962 1.4324086915513234 9.555201595252791 1.4504790297378287 1 0 1
74 8 4 0.404798 -0.5169723212782861 4.608229993550188 7.868965461575237 1 0 0
75 8 8 -0.358962 -0.247328107469865 3.4912567986349012 8.085947622480457 1 0 0
1274 128 4 0.404798 0.8028153052027859 4.044398109219007 1.2185873784985182 1 0 1
396 40 2 -0.091672 -0.18149648181908118 0.3874145649667996 5.785424668826734 1 1 0
1271 128 1 -0.091672 0.44757201741803454 5.377931542251902 0.7656281441533123 1 0 1
738 74 6 0.404798 6.01233427995758 1.5523878076418829 12.683883598322522 0 1 0
79 8 9 -0.358962 0.6906760959511692 5.030294824447886 4.623507064459387 1 0 0
479 48 9 -0.358962 -0.08366612356643133 5.010798520103057 10.871682111595115 1 0 0
487 49 5 0.404798 1.9714181201072258 8.671236695142383 11.645240698433703 0 0 0
477 48 5 0.404798 -0.7571500775472169 5.635602325098695 11.579601322119784 1 0 0
77 8 5 0.404798 0.15868532553644454 5.665167091944076 5.421850728871797 1 0 0
85 9 8 -0.358962 3.0153888717612967 6.270532467542525 2.7233459679881524 0 0 0
485 49 8 -0.358962 2.0302244686900375 6.478901830215879 8.808692551186109 0 0 0
4 1 4 0.404798 3.949430091518087 1.7096853086853978 2.508119264474766 0 0 0
404 41 4 0.404798 2.619559696362748 1.5219252680503386 9.127177834559637 0 0 0
7 1 5 0.404798 3.456119205528647 2.533120939025334 5.117335421921608 0 0 0
9 1 9 -0.358962 2.8432339537086904 1.8970269625830118 5.883216060325562 0 0 0
407 41 5 0.404798 2.1393550960606555 2.5521059065188454 11.715055842368182 0 0 0
409 41 9 -0.358962 1.6187475532729403 1.9458324637545972 12.515638190372409 0 0 0
1 1 1 -0.091672 4.442112314251963 2.9031440254262293 2.9722149411236662 0 0 0
401 41 1 -0.091672 3.034644415349852 2.8190798442498903 9.469621085182384 0 0 0
2 1 3 0.404798 5.102541669327701 3.7747414649800404 1.9903561097938298 0 0 0
3 1 7 -0.358962 5.56383765669274 4.468524395334109 1.226394901977835 0 0 0
402 41 3 0.404798 3.5867228475741717 3.5345993562355957 8.490173386991996 0 0 0
403 41 7 -0.358962 3.968822242952795 4.209834660437345 7.639718153807298 0 0 0
6 1 2 -0.091672 4.174179101521688 3.296610296562163 4.2143100780069185 0 0 0
8 1 6 0.404798 4.575472592321751 4.580208945213148 4.7179658277757675 0 0 0
406 41 2 -0.091672 2.7911502691578027 3.3026108235576177 10.71398131381668 0 0 0
408 41 6 0.404798 3.165595402166625 4.586615282441504 11.146099825492998 0 0 0
10 1 10 -0.358962 4.824384647261658 5.695556752677543 4.986430745621548 0 0 0
410 41 10 -0.358962 3.609687067384254 5.641221067901679 11.41507707180324 0 0 0
1275 128 8 -0.358962 1.1227900550035024 3.0189619467681816 1.700096095180541 1 0 1
87 9 5 0.404798 2.9827514903188472 8.785504629043126 5.563426490385569 0 0 0
5 1 8 -0.358962 3.652475236769448 0.6755688558327303 1.983330855220092 0 0 0
1213 122 7 -0.358962 7.135693690285492 7.13043573069952 2.7406623379273465 0 0 1
481 49 1 -0.091672 3.1397974588271715 8.681757612859252 9.540390765911347 0 0 0
20 2 10 -0.358962 7.015483177809471 8.453994753757827 5.549621247609456 0 0 0
484 49 4 0.404798 2.581742214274806 7.453002493857558 9.211352581527942 0 0 0
71 8 1 -0.091672 -0.8829702909413544 5.935731338083287 7.5289808721644205 1 0 0
332 34 3 0.404798 6.707824365245381 0.6295510400522385 8.367397161087217 0 1 0
340 34 10 -0.358962 7.009121083613457 2.696380425343108 5.6342512773161015 0 1 0
405 41 8 -0.358962 2.1669450723731707 0.42126544034689045 8.874694672618357 0 0 0
486 49 2 -0.091672 2.8769440659174164 9.26835507592749 10.749913351814723 0 0 0
86 9 2 -0.091672 3.7968891968315432 9.246233746262897 4.5223163511078885 0 0 0
84 9 4 0.404798 3.3614246765550058 7.391843036713652 2.942343090750934 0 0 0
740 74 10 -0.358962 5.503210453766378 2.570332782169597 12.558402093483359 0 1 0
489 49 9 -0.358962 1.1828274984828155 8.10856565540251 12.36743381921689 0 0 0
89 9 9 -0.358962 2.1806705720429758 8.432217371756185 6.362072570263508 0 0 0
1212 122 3 0.404798 7.8086441516919995 6.515593794217477 1.9924664870919377 0 0 1
12 2 3 0.404798 6.710738794488379 6.5413536188372765 8.894610704686217 0 0 0
476 48 2 -0.091672 -1.5850582105190782 6.29659796291925 12.526705847005267 1 0 0
82 9 3 0.404798 4.8355476559771935 9.301836593816738 2.4279843014225886 0 0 0
1533 154 7 -0.358962 7.061684039366726 1.2451233253042788 2.4000736944450405 0 1 1
420 42 10 -0.358962 5.834982017129509 8.726598582989606 12.24210252617909 0 0 0
1532 154 3 0.404798 7.802541328594469 0.6178439802859754 1.7473553262489319 0 1 1
83 9 7 -0.358962 5.436900061592837 9.779164618444899 1.5782022390346533 0 0 0
418 42 6 0.404798 6.212315021476785 7.689452407959574 12.601057351065602 0 0 0
398 40 6 0.404798 -0.7428994501377639 1.546070726139853 5.387562213866597 1 1 0
483 49 7 -0.358962 4.740811397632147 9.691916445136727 7.8824048998909895 0 0 0
796 80 2 -0.091672 -1.5887065099741735 0.07188646532808654 12.789958265531302 1 1 0
555 56 8 -0.358962 -0.5486299865739297 9.322244472224368 14.401933671360661 1 0 0
877 88 5 0.404798 -2.2883935316007222 5.303256138417721 18.512420389574864 1 0 0
876 88 2 -0.091672 -2.8021116215752904 6.2626194385474525 19.463527815630215 1 0 0
1205 121 8 -0.358962 -0.2703012190617824 0.801419193225819 21.938350925657144 0 0 0
955 96 8 -0.358962 -1.9909759920570607 9.760210122338684 21.517658991559898 1 0 0
871 88 1 -0.091672 -2.9301862448808893 5.899337168154218 20.757543832757925 1 0 0
733 74 7 -0.358962 5.235515688374821 1.1887815424921127 15.963921854317654 0 1 0
1540 154 10 -0.358962 3.8964358724441217 2.7401525427231266 26.011693219474715 0 1 0
475 48 8 -0.358962 -0.45035069912726255 3.604524945183415 14.335004669556367 1 0 0
471 48 1 -0.091672 -1.8340038223024502 5.690404018440422 13.688102248258094 1 0 0
874 88 4 0.404798 -2.7207772450785304 4.547174915372691 21.132609134806458 1 0 0
875 88 8 -0.358962 -2.4631176435959445 3.4835755626516174 21.481677115230703 1 0 0
1278 128 6 0.404798 -4.093211423215081 7.123851567603258 25.98737192353751 1 0 0
879 88 9 -0.358962 -1.892622844252435 4.540735773212351 17.75442081790733 1 0 0
1279 128 9 -0.358962 -2.234396168446956 4.422467237127575 24.822294919196 1 0 0
1132 114 3 0.404798 4.439294027079789 0.6992270761884183 21.733195303354584 0 1 0
818 82 6 0.404798 4.949098964417521 7.6822986525740085 19.244756889405856 0 0 0
884 89 4 0.404798 1.6769987094855328 7.930639740270715 15.867449962662569 0 0 0
885 89 8 -0.358962 1.549444124492164 6.819914393672762 15.591502753746665 0 0 0
1285 129 8 -0.358962 -0.008135699206896163 6.68744847159501 22.405428959744096 0 0 0
804 81 4 0.404798 1.8213790310137985 1.5122002438794544 15.746412657127381 0 0 0
1204 121 4 0.404798 0.3250436726934782 1.70330971977651 22.353660901426572 0 0 0
807 81 5 0.404798 1.4856028496483238 2.4303385338385635 18.35700687756691 0 0 0
809 81 9 -0.358962 1.0547732077132403 1.6514917919132557 19.08643256621082 0 0 0
1207 121 5 0.404798 0.16201224962870864 2.3467086953719725 25.089662279354496 0 0 0
1209 121 9 -0.358962 -0.29996524650690315 1.6469480384369948 25.899695093686553 0 0 0
801 81 1 -0.091672 2.2074567076528884 2.8373063982248365 16.131354522095954 0 0 0
1201 121 1 -0.091672 0.8920394268907046 2.9497996887820186 22.789950375683677 0 0 0
802 81 3 0.404798 3.030791424710215 3.529480554222701 15.20173929423952 0 0 0
803 81 7 -0.358962 3.654266822863633 4.139312787504705 14.423136673436773 0 0 0
1202 121 3 0.404798 1.449024488307105 3.859982351018723 21.903555123800235 0 0 0
1203 121 7 -0.358962 1.8717202012671081 4.582034974731734 21.080146135185814 0 0 0
806 81 2 -0.091672 2.088118266593595 3.290326172853919 17.38136291276814 0 0 0
808 81 6 0.404798 2.531927817188287 4.545007034316087 17.83583653630172 0 0 0
1206 121 2 -0.091672 0.7749858878378264 3.2417847955627925 24.131008844467395 0 0 0
1208 121 6 0.404798 1.3384484667183338 4.412792920484321 24.615765089523606 0 0 0
810 81 10 -0.358962 2.9251667002053576 5.557590688629606 18.201447131448674 0 0 0
1210 121 10 -0.358962 1.8582411975141353 5.3976080850455554 24.960927633807852 0 0 0
1282 129 3 0.404798 1.5268766768485915 9.69358061336244 22.12967421906439 0 0 0
1277 128 5 0.404798 -2.9057505548978133 5.10518653971949 25.515966187642817 1 0 0
474 48 4 0.404798 -1.0626564921847186 4.539923460807718 14.028585928659167 1 0 0
813 82 7 -0.358962 3.6994723964083347 7.026732539828109 22.644171227773583 0 0 0
820 82 10 -0.358962 4.369563911413349 8.681357880623986 18.993126158632798 0 0 0
1140 114 10 -0.358962 4.732460315393597 2.5994445290645296 18.80239514347672 0 1 0
1276 128 2 -0.091672 -3.616331109876386 5.88988333380897 26.45548661123279 1 0 0
805 81 8 -0.358962 1.6312886778859204 0.4367136712602809 15.351344508180224 0 0 0
881 89 1 -0.091672 1.9959516509894573 9.264701828024439 16.33250753480575 0 0 0
1598 160 6 0.404798 -3.9230070238978 1.3019579304025677 25.68909666324003 1 1 0
1284 129 4 0.404798 0.4571888284165344 7.724798613112273 22.688448919862154 0 0 0
886 89 2 -0.091672 1.6196096567828109 9.714542168627428 17.51160527701489 0 0 0
889 89 9 -0.358962 0.2660234535775192 8.125016240586467 19.003741809595056 0 0 0
1286 129 2 -0.091672 0.9342890946285056 9.081968734393735 24.54760376260107 0 0 0
1281 129 1 -0.091672 1.005882395723431 8.889247183813671 23.156924631043662 0 0 0
1289 129 9 -0.358962 -0.14598479277769005 7.44181272077409 26.316980628585856 0 0 0
887 89 5 0.404798 0.8556965225042608 8.880741098096058 18.33054709717779 0 0 0
1287 129 5 0.404798 0.31922131517325614 8.153593611419288 25.454614037125435 0 0 0
873 88 7 -0.358962 -3.795374590234878 7.42885557096068 22.622143808026244 1 0 0
1220 122 10 -0.358962 3.867075993613782 8.45587572387765 25.933302116879844 0 0 0
1133 114 7 -0.358962 3.705439695758116 1.3435880426594247 22.376227073453983 0 1 0
413 42 7 -0.358962 4.7191908449740705 7.137401758053268 15.881437266013307 0 0 0
412 42 3 0.404798 5.510293345510452 6.677337158715335 15.17621564252181 0 0 0
812 82 3 0.404798 4.427765744253463 6.491644290355946 21.865859123184784 0 0 0
872 88 3 0.404798 -3.438303430054092 6.761063195749096 21.70836075811079 1 0 0
1596 160 2 -0.091672 -3.535798959566655 0.09432805313766095 26.32790177221926 1 1 0
156 16 2 -0.091672 -0.47095167019724615 12.154437274635576 6.2020687415345215 1 0 0
644 65 4 0.404798 2.5283356343220227 19.424213273396056 9.120566395456363 0 0 0
567 57 5 0.404798 2.25414699930344 14.757183014733593 11.675233767772706 0 0 0
562 57 3 0.404798 3.96459866031556 15.294618267711153 8.446473676962988 0 0 0
154 16 4 0.404798 -0.3330426055845994 10.579702690351406 7.968439774554867 1 0 0
1292 130 3 0.404798 7.870719236024891 12.571111355990892 1.904496723152483 0 0 1
93 10 7 -0.358962 5.975535278102361 12.91940692959647 9.145544948697582 0 0 0
88 9 6 0.404798 4.488967680052891 10.436934016736878 4.873603331075441 0 0 0
173 18 7 -0.358962 5.603489702128432 18.865813721747337 8.57792006491244 0 0 0
1351 136 1 -0.091672 0.48266562842785204 11.786033009545648 0.6796116517549827 1 0 1
236 24 2 -0.091672 -0.46591786791661416 18.415087732778087 6.012035711969923 1 0 0
157 16 5 0.404798 0.4400971927681834 11.468918169897407 5.345628487890782 1 0 0
557 56 5 0.404798 -0.5658665029212153 11.590441698910297 11.9573687771613 1 0 0
165 17 8 -0.358962 2.9036147711587708 12.2407841318096 2.3903131454418625 0 0 0
565 57 8 -0.358962 1.7242927816592037 12.609452833185731 8.942927611954653 0 0 0
1435 144 8 -0.358962 1.2325776550453522 15.749805718201653 1.4061557630225376 1 0 1
164 17 4 0.404798 3.3424447994241904 13.264022684656648 2.7270765493440496 0 0 0
564 57 4 0.404798 2.4008551574331674 13.572996076369853 9.11109686311392 0 0 0
561 57 1 -0.091672 3.186769694695288 14.739903634980413 9.435641535032246 0 0 0
500 50 10 -0.358962 5.750343097721166 14.285555010597005 12.404869994532564 0 0 0
570 57 10 -0.358962 3.925342389952103 17.754247861917143 11.009284922515963 0 0 0
488 49 6 0.404798 3.42354610247933 10.552333806175627 11.041646783143285 0 0 0
1372 138 3 0.404798 7.911001469540252 18.45393675360242 1.5669132619778832 0 0 1
244 25 4 0.404798 3.580035708146284 19.572731223319252 2.1635350240641418 0 0 0
170 17 10 -0.358962 4.699203643210837 17.48078606288095 4.6904656274833165 0 0 0
90 9 10 -0.358962 5.000239093497456 11.47981408692415 5.249574792715382 0 0 0
490 49 10 -0.358962 3.9129729139340306 11.546403289158855 11.288893643416175 0 0 0
568 57 6 0.404798 3.56215724219152 16.655084196803482 10.903914407110353 0 0 0
1293 130 7 -0.358962 7.060986540477958 13.066370440917563 2.59737677099529 0 0 1
559 56 9 -0.358962 0.2195836471472774 11.085879145625466 11.215403797477466 1 0 0
569 57 9 -0.358962 1.7170342094492321 14.195697804014076 12.531797789396226 0 0 0
169 17 9 -0.358962 2.2744900958097416 14.051850425526434 5.965517906395869 0 0 0
167 17 5 0.404798 2.884697729675355 14.589540236294424 5.153761003733813 0 0 0
161 17 1 -0.091672 3.9978225573708253 14.550995192586234 3.0121524649807596 0 0 0
235 24 8 -0.358962 0.27320046268876075 15.543709139786834 7.777823358048416 1 0 0
563 57 7 -0.358962 4.6922004969818225 15.792011264855892 7.65184996183183 0 0 0
162 17 3 0.404798 4.746668627791759 15.227181476822222 2.012491772562633 0 0 0
151 16 1 -0.091672 -0.9133803975669379 11.728981093420957 7.407694951609963 1 0 0
1354 136 4 0.404798 1.0221304182805024 10.546563847747878 1.0718424381351739 1 0 1
166 17 2 -0.091672 3.6624945847367227 15.226606669971304 4.1287460490643735 0 0 0
1373 138 7 -0.358962 7.172063334795387 18.894491690734096 2.3228029128289047 0 0 1
163 17 7 -0.358962 5.347726687908663 15.778855339040357 1.245671355720071 0 0 0
234 24 4 0.404798 -0.1469008242233183 16.595683709096832 7.512106540185546 1 0 0
237 24 5 0.404798 0.37018004469855936 17.690836065411137 5.063635854887091 1 0 0
231 24 1 -0.091672 -0.7131025535268838 17.849073811425754 7.183682341417292 1 0 0
239 24 9 -0.358962 1.0724873782040945 17.140915768223046 4.337296637309345 1 0 0
639 64 9 -0.358962 -0.17965673174139196 17.39883483167846 11.048730690201245 1 0 0
637 64 5 0.404798 -0.8213036650278531 17.96421020892549 11.834878537949136 1 0 0
245 25 8 -0.358962 3.0523739051292567 18.587088886550013 1.888374770841858 0 0 0
645 65 8 -0.358962 2.079940292165523 18.43918470095453 8.710444535074261 0 0 0
578 58 6 0.404798 6.194238954944067 19.653852984653646 12.104147659631215 0 0 0
159 16 9 -0.358962 1.0694015301940065 10.864502985762527 4.5401687743062915 1 0 0
1434 144 4 0.404798 0.6675409845839781 16.70088398941696 0.9885647790994966 1 0 1
566 57 2 -0.091672 2.910211681290815 15.415003766673706 10.574775190752668 0 0 0
168 17 6 0.404798 4.307766420768117 16.434662831845024 4.474663652906739 0 0 0
556 56 2 -0.091672 -1.5658477984771948 12.1689930018794 12.86835038450993 1 0 0
92 10 3 0.404798 6.646059773237242 12.536410142344034 8.299579098848884 0 0 0
636 64 2 -0.091672 -1.7285827179348732 18.523829379405132 12.747499787453485 1 0 0
1431 144 1 -0.091672 0.08896581126496055 17.92118254735435 0.5855378208138166 1 0 1
172 18 3 0.404798 6.486163743966709 18.470109316455986 7.938482381254013 0 0 0
498 50 6 0.404798 6.191573403735129 13.289747238466278 12.746552981897413 0 0 0
158 16 6 0.404798 -0.9160533410128225 13.4015431172664 5.619384371564697 1 0 0
178 18 6 0.404798 7.13408065060623 19.61131093847873 5.449094569661832 0 0 0
649 65 9 -0.358962 1.652626950244195 19.943881828615318 12.556651371701282 0 0 0
973 98 7 -0.358962 3.9623294882617364 19.14132374403264 22.53956202713486 0 0 0
954 96 4 0.404798 -2.5219987553046126 10.773277345800551 21.25109068514121 1 0 0
1369 137 9 -0.358962 -1.097208941786186 14.155372771862847 25.823919735937096 0 0 0
1361 137 1 -0.091672 0.8196456483645629 15.080318829409892 23.293732037209594 0 0 0
1300 130 10 -0.358962 3.4141593476503953 14.571803513120104 25.679694953180338 0 0 0
1444 145 4 0.404798 0.009947704292843529 19.538391891765 22.57125201032241 0 0 0
631 64 1 -0.091672 -2.0130645720389353 17.920557586709418 13.913423355025394 1 0 0
900 90 10 -0.358962 4.491717287833138 14.482494542878745 19.25898097045687 0 0 0
554 56 4 0.404798 -1.1261477710177412 10.327623467976439 14.231403152233607 1 0 0
957 96 5 0.404798 -2.07455019601652 11.700679499060994 18.595898920498573 1 0 0
1359 136 9 -0.358962 -2.5602406085685967 11.07090765224893 24.48648539570456 1 0 0
1357 136 5 0.404798 -3.1710896358131846 11.604390844358928 25.25200022123891 1 0 0
965 97 8 -0.358962 0.7528745133726629 12.568237434128763 15.371723236450617 0 0 0
1365 137 8 -0.358962 -0.04037385091956569 12.732510856531805 22.571371727986445 0 0 0
964 97 4 0.404798 1.17213303016378 13.604622389045904 15.731537450061845 0 0 0
1364 137 4 0.404798 0.3380728484718092 13.768445292574254 22.8728563964188 0 0 0
1283 129 7 -0.358962 1.9350266851872133 10.253681648146422 21.23473781682075 0 0 0
1378 138 6 0.404798 3.764462316986842 19.367109846472125 25.568958130724177 0 0 0
573 58 7 -0.358962 4.672457784946887 18.799218590998272 15.581844752286328 0 0 0
898 90 6 0.404798 4.932260702790897 13.451967353586841 19.635020684897746 0 0 0
969 97 9 -0.358962 0.06189940784044268 14.280794305742285 19.017451781874737 0 0 0
959 96 9 -0.358962 -1.4070970674999372 11.105530510937454 17.848815002428765 1 0 0
972 98 3 0.404798 4.599270491184594 18.545164758612838 21.811734344225084 0 0 0
890 89 10 -0.358962 2.5227338955583822 11.96158242863063 18.410686866628573 0 0 0
1290 129 10 -0.358962 1.9573274716537172 11.213563419359001 25.649151988316994 0 0 0
970 97 10 -0.358962 2.607475789556821 17.660146253704664 18.176510047078537 0 0 0
1288 129 6 0.404798 1.5596199366195806 10.243169284414662 25.163126851305663 0 0 0
1031 104 1 -0.091672 -3.256472677411422 17.780881510003358 20.859091430067117 1 0 0
1356 136 2 -0.091672 -3.976234095122928 12.24079009348545 26.307270879089273 1 0 0
1367 137 5 0.404798 -0.4142170463036319 14.83291257214305 25.25120704934536 0 0 0
635 64 8 -0.358962 -0.7927386265850602 15.804533036078343 14.754290280672347 1 0 0
967 97 5 0.404798 0.6806002666624904 14.851406080252067 18.232006406682828 0 0 0
961 97 1 -0.091672 1.8290550973007953 14.852203471952999 16.20374732653814 0 0 0
1362 137 3 0.404798 1.56281133736027 15.832690933031547 22.367924577968168 0 0 0
1039 104 9 -0.358962 -1.64825324879829 17.20044359065101 17.845938672869437 1 0 0
966 97 2 -0.091672 1.4801558389150253 15.464728221907132 17.345207481902584 0 0 0
962 97 3 0.404798 2.7055684541124827 15.444697614964618 15.289698445388622 0 0 0
634 64 4 0.404798 -1.3597067379487753 16.71275536688501 14.330257068525288 1 0 0
1034 104 4 0.404798 -2.6443906887713853 16.485700199291905 21.125071843649113 1 0 0
1298 130 6 0.404798 3.8109712680084673 13.580494798288484 26.124645727270686 0 0 0
1035 104 8 -0.358962 -2.2438338145005394 15.418306710582534 21.366418807041207 1 0 0
1363 137 7 -0.358962 2.1799525714608294 16.4529956170572 21.618519228209493 0 0 0
963 97 7 -0.358962 3.432106751016448 15.963089963919684 14.500936883273036 0 0 0
1439 144 9 -0.358962 -2.8057528095484745 17.154454838729954 24.53165201621688 1 0 0
1037 104 5 0.404798 -2.2295225028441776 17.63902552600128 18.744030643041736 1 0 0
1437 144 5 0.404798 -3.471485978982805 17.70254039301744 25.31114553439869 1 0 0
1045 105 8 -0.358962 0.9501628096852275 18.51160225997985 15.548600692070352 0 0 0
1445 145 8 -0.358962 -0.44312931712758497 18.48793065427163 22.207068816013624 0 0 0
1368 137 6 0.404798 0.9798736708796509 16.744399251189357 24.98920143449016 0 0 0
551 56 1 -0.091672 -1.8795849043405166 11.523743219289269 14.013325874450226 1 0 0
951 96 1 -0.091672 -3.0254162678857313 12.081648633682494 20.765519414997854 1 0 0
1370 137 10 -0.358962 1.2941817015585535 17.78525323315456 25.413868989294176 0 0 0
1366 137 2 -0.091672 0.5376496954353138 15.53833085182279 24.496694242418922 0 0 0
968 97 6 0.404798 2.1365626222561143 16.649723345762435 17.79602041974487 0 0 0
956 96 2 -0.091672 -2.942842922623835 12.406213120810945 19.469017925758052 1 0 0
1036 104 2 -0.091672 -2.9641080708363496 18.381340990138405 19.69922690462781 1 0 0
893 90 7 -0.358962 3.536171117566152 12.719510380451316 22.774752283254433 0 0 0
888 89 6 0.404798 2.107832667901321 10.924735136288188 18.0358693144765 0 0 0
1044 105 4 0.404798 1.5591610855870282 19.44783958008643 15.825857353798416 0 0 0
952 96 3 0.404798 -3.622360667592431 12.873392978209674 21.789391292556058 1 0 0
1436 144 2 -0.091672 -4.107799966513748 18.429218077046496 26.259137991025515 1 0 0
883 89 7 -0.358962 3.4321422985429315 10.576393507136943 14.595789665547901 0 0 0
978 98 6 0.404798 5.022083085613768 19.393260172384267 19.01161518528502 0 0 0
892 90 3 0.404798 4.167350249527753 12.216437697997696 21.952151774960914 0 0 0
572 58 3 0.404798 5.412054325884707 18.449874138663255 14.77788453074154 0 0 0
882 89 3 0.404798 2.8221723796523372 10.023338316742416 15.409694099410798 0 0 0
1514 152 4 0.404798 0.8814314515362437 22.544985235812113 1.1892080900877988 1 0 1
315 32 8 -0.358962 0.1428188750799615 21.484773697097534 8.408735770717996 1 0 0
1515 152 8 -0.358962 1.350430373959174 21.543710249623214 1.4705730874370961 1 0 1
330 33 10 -0.358962 5.265147818520893 29.619836351859433 4.580036478698581 0 0 0
719 72 9 -0.358962 -0.2306502067250098 22.761347785234157 11.18019428311475 1 0 0
730 73 10 -0.358962 4.032230735059871 29.15006284338898 11.345115474041238 0 0 0
1511 152 1 -0.091672 0.3924319298918436 23.85381440618502 0.8673627543332517 1 0 1
241 25 1 -0.091672 4.307948434434314 20.740132222198774 2.606643769002352 0 0 0
641 65 1 -0.091672 3.0187370756245318 20.673336115392317 9.484728548888393 0 0 0
580 58 10 -0.358962 5.8204041203465735 20.61041531465652 11.506951050927604 0 0 0
242 25 3 0.404798 5.161051879367055 21.21951906803486 1.6266150875357142 0 0 0
642 65 3 0.404798 3.8033754467942904 21.336312606264915 8.52537786628544 0 0 0
246 25 2 -0.091672 4.046716973489881 21.345172422240637 3.8032033698331147 0 0 0
180 18 10 -0.358962 6.702511951279111 20.646320876901555 5.084863670364411 0 0 0
646 65 2 -0.091672 2.8694978477075357 21.263315351770824 10.722460478372538 0 0 0
643 65 7 -0.358962 4.468957096235689 21.808153390059566 7.782514722770684 0 0 0
243 25 7 -0.358962 5.893390704374731 21.671709386654978 0.8772151040945537 0 0 0
717 72 5 0.404798 -0.7788499660443367 23.31827513737578 11.998759505375054 1 0 0
316 32 2 -0.091672 -0.8549659016053123 24.321011340055634 6.579198522613171 1 0 0
319 32 9 -0.358962 0.511638022975756 23.114562404205927 4.840920784384051 1 0 0
650 65 10 -0.358962 3.7743759438505755 23.631319170573256 11.471501446443684 0 0 0
248 25 6 0.404798 4.665363030169617 22.562373376632525 4.210584397993312 0 0 0
252 26 3 0.404798 6.921476628698143 24.668348646190008 8.155603881904156 0 0 0
1452 146 3 0.404798 7.564107989092075 24.372441738989338 1.1930394457609197 0 0 1
397 40 5 0.404798 0.6681113238613988 29.899490128307587 4.846213640149524 1 0 0
797 80 5 0.404798 -0.9470352918054665 29.503770068739616 11.685187330016195 1 0 0
716 72 2 -0.091672 -1.5420682788460862 24.100885928406548 12.882763590351386 1 0 0
394 40 4 0.404798 0.12631757356111906 28.584428966430085 7.187760688851263 1 0 0
395 40 8 -0.358962 0.5411268568094856 27.50730319886615 7.333611548598991 1 0 0
728 73 6 0.404798 3.565858135149271 28.16645597959859 10.933337586803912 0 0 0
1594 160 4 0.404798 0.7921701228281823 28.48661296331462 1.1262411248032507 1 0 1
1595 160 8 -0.358962 0.9463707543257489 27.46985155856677 1.624867229590308 1 0 1
648 65 6 0.404798 3.4068994702318216 22.55773312131799 11.096041086949603 0 0 0
314 32 4 0.404798 -0.3242379282160741 22.479334034561447 8.065644625255365 1 0 0
729 73 9 -0.358962 1.5321254135943363 25.520001732200466 11.838177323913895 0 0 0
253 26 7 -0.358962 6.470399331097438 25.29978215768648 9.02471544895563 0 0 0
1453 146 7 -0.358962 6.761918358248564 24.818741643335006 1.90671006367925 0 0 1
799 80 9 -0.358962 -0.5672732344433165 28.940452034164096 10.714197902195322 1 0 0
726 73 2 -0.091672 3.1106833542491867 26.88472886653579 10.361017383245153 0 0 0
317 32 5 0.404798 -0.12667538755328323 23.74536557982076 5.581466489945094 1 0 0
660 66 10 -0.358962 6.008151116196357 26.570960817775966 11.971091192867195 0 0 0
399 40 9 -0.358962 1.3088190969503448 29.42755221904605 4.003362277678296 1 0 0
250 25 10 -0.358962 5.178624310474067 23.503162379297606 4.562416727605172 0 0 0
325 33 8 -0.358962 3.232148438132159 24.70272943677982 1.8394786440832767 0 0 0
725 73 8 -0.358962 2.126606134668724 24.3115921418827 8.337132860750074 0 0 0
324 33 4 0.404798 3.815753302103997 25.64020827923416 2.1999205530115966 0 0 0
724 73 4 0.404798 2.4968594329922658 25.35191802471296 8.645616539867701 0 0 0
327 33 5 0.404798 3.435972782227706 26.59420675471781 4.7770645270239385 0 0 0
329 33 9 -0.358962 2.697612757008784 25.9881016323627 5.505511576176341 0 0 0
727 73 5 0.404798 2.2441818963036426 26.177778269528556 11.212035716527 0 0 0
321 33 1 -0.091672 4.42418946769697 26.887634388887456 2.6738328766170167 0 0 0
721 73 1 -0.091672 3.1586732516354443 26.578637025283815 9.066584738713578 0 0 0
322 33 3 0.404798 5.189205615260194 27.642153223672253 1.6920419428641253 0 0 0
323 33 7 -0.358962 5.785006462746414 28.29536804400019 0.9329043709299657 0 0 0
722 73 3 0.404798 3.906465284416792 27.2852679382756 8.117857423220123 0 0 0
723 73 7 -0.358962 4.518474219945189 27.95141971163812 7.419197872972658 0 0 0
326 33 2 -0.091672 4.212351357736792 27.377847989458274 3.881854374720078 0 0 0
328 33 6 0.404798 4.80713379549912 28.595823302147878 4.27053889280967 0 0 0
647 65 5 0.404798 2.1981698843191344 20.60814478173861 11.756862323629392 0 0 0
247 25 5 0.404798 3.01586841554219 20.835062009660252 4.6407031851527805 0 0 0
311 32 1 -0.091672 -1.011274521207367 23.68686364943436 7.709076376682858 1 0 0
249 25 9 -0.358962 2.185335919823647 20.430539394872582 5.3204089152582 0 0 0
1591 160 1 -0.091672 0.3941374802073492 29.67633862586278 0.5691847890793051 1 0 1
391 40 1 -0.091672 -0.4556705993920309 29.81670021205563 6.9285813301678125 1 0 0
260 26 10 -0.358962 7.299496937719072 26.487458473218435 4.916156842269872 0 0 0
1111 112 1 -0.091672 -3.178944535390848 23.599752611224535 21.08014650077027 1 0 0
1443 145 7 -0.358962 2.11274958334232 21.956827706451293 21.16594320602174 0 0 0
1048 105 6 0.404798 2.1588426523701725 22.525599923359408 17.809517272617278 0 0 0
715 72 8 -0.358962 -0.7980588203621957 21.478968630268223 14.963565526826752 1 0 0
1115 112 8 -0.358962 -2.417422483073815 21.165093738265462 21.734208375732415 1 0 0
1116 112 2 -0.091672 -2.9074582474780692 24.105907039151077 19.877958744952632 1 0 0
1530 153 10 -0.358962 2.205941582776341 29.28571101826702 24.236285498527412 0 0 0
714 72 4 0.404798 -1.1994108561784032 22.51541158340523 14.645832172982342 1 0 0
1041 105 1 -0.091672 2.167907642042328 20.652373580657613 16.293186281795485 0 0 0
1441 145 1 -0.091672 0.5791705113320536 20.798493211811838 23.024453180037614 0 0 0
1047 105 5 0.404798 0.6739658251072629 20.633155848091878 18.189452196803455 0 0 0
1042 105 3 0.404798 3.0299828444152843 21.39745531681311 15.391202556488047 0 0 0
1442 145 3 0.404798 1.4876507714435978 21.445577902466326 22.055621567528227 0 0 0
1114 112 4 0.404798 -2.709293121021477 22.250527979451704 21.447965566244545 1 0 0
1046 105 2 -0.091672 1.682512405344346 21.286461579676864 17.356544591620104 0 0 0
1043 105 7 -0.358962 3.6689991685593473 21.97196130049612 14.57438174715389 0 0 0
1446 145 2 -0.091672 0.3987142743052212 21.353400193789245 24.264664855460275 0 0 0
1519 152 9 -0.358962 -2.798452291208226 22.88946153540926 24.77734448013755 1 0 0
1448 145 6 0.404798 1.0618854978287118 22.49629201729812 24.672824479455127 0 0 0
1119 112 9 -0.358962 -1.394768925573455 23.00125681908498 18.101367859270887 1 0 0
1060 106 10 -0.358962 4.798258271596399 26.78160152567567 18.986588349316627 0 0 0
1053 106 7 -0.358962 3.9302255876952885 24.50460141707505 22.508313788834293 0 0 0
1049 105 9 -0.358962 -0.1906030585388394 20.175985830813254 18.83354263306483 0 0 0
1447 145 5 0.404798 -0.5197929536109256 20.787311825968704 25.137604121803953 0 0 0
653 66 7 -0.358962 5.001724226129445 24.848487398098793 15.671477105173071 0 0 0
794 80 4 0.404798 -1.1562697541819165 28.264269844745133 14.154494371697727 1 0 0
791 80 1 -0.091672 -1.6942424335598552 29.521118034663377 13.937977108478506 1 0 0
1599 160 9 -0.358962 -2.1990483004956087 28.435135282824394 24.897998201308063 1 0 0
1052 106 3 0.404798 4.567015291441616 24.193360166535804 21.59763742751067 0 0 0
1194 120 4 0.404798 -2.1821219388617132 27.992632351845742 20.905333867874656 1 0 0