LAMMPS data file via write_data, version 29 Sep 2021, timestep = 5000000

1620 atoms
10 atom types
1458 bonds
9 bond types
1620 angles
10 angle types
1944 dihedrals
12 dihedral types

0 31.303 xlo xhi
0 31.303 ylo yhi
0 31.303 zlo zhi

Masses

1 12.01
2 12.01
3 12.01
4 12.01
5 12.01
6 12.01
7 14.01
8 14.01
9 14.01
10 14.01

Bond Coeffs # harmonic

1 400 1.426
2 400 1.426
3 400 1.426
4 400 1.426
5 549 1.34
6 650 1.16
7 650 1.16
8 650 1.16
9 650 1.16

Angle Coeffs # harmonic

1 70 116.8
2 70 116.8
3 70 121.6
4 70 121.6
5 70 121.6
6 70 121.6
7 70 178.9
8 70 178.9
9 70 178.9
10 70 178.9

Dihedral Coeffs # opls

1 0 0 0 0
2 0 0 0 0
3 0 0 0 0
4 0 0 0 0
5 0 0 0 0
6 0 0 0 0
7 0 0 0 0
8 0 0 0 0
9 0 14 0 0
10 0 14 0 0
11 0 14 0 0
12 0 14 0 0

Atoms # full

449 45 9 -0.358962 13.175519037139207 5.597743302899311 5.660519651845842 1 -2 0
319 32 9 -0.358962 3.24511445512454 10.242330319681445 0.034183752709209404 0 0 0
858 86 6 0.404798 1.984266886053182 8.43726363334402 5.932433863831311 3 2 3
812 82 3 0.404798 12.14021988535739 0.8340502100036484 0.4115797144815643 0 0 2
934 94 4 0.404798 7.9925766110098415 7.343055782713074 1.6296010468916404 3 1 0
1051 106 1 -0.091672 0.8887548344133607 2.749789714814774 6.60134989176409 1 -1 -2
1409 141 9 -0.358962 4.937174436700906 2.720081241675933 3.2671459036968207 0 2 2
1055 106 8 -0.358962 3.320788446860683 2.673897582771149 5.625262423974058 1 -1 -2
1054 106 4 0.404798 2.243149717000921 2.7238679595638318 6.051639874480241 1 -1 -2
842 85 3 0.404798 2.012233261837439 1.7830977991376056 1.3558597800951468 3 2 1
1057 106 5 0.404798 0.28572896648288715 4.6925302549171635 5.3020393991127595 1 -1 -2
128 13 6 0.404798 13.59931076045207 8.241140486969849 0.6260455539284465 -2 0 0
860 86 10 -0.358962 2.357055980130445 8.241890166714539 4.851481731781499 3 2 3
311 32 1 -0.091672 2.5933456270255304 6.909549212541399 0.20716742944175198 0 0 0
1020 102 10 -0.358962 8.778634821558807 6.571927862260538 5.086255566336719 0 2 3
314 32 4 0.404798 1.4162312473434335 7.5063903299624215 0.9133351207088632 0 0 0
563 57 7 -0.358962 10.442112113413462 3.758933178291596 6.376713104838674 2 -1 -2
933 94 7 -0.358962 10.418563867486494 9.247315846729787 3.097196379908028 3 1 0
376 38 2 -0.091672 12.23556324686481 0.9191111310564999 6.693547271822433 1 2 0
1404 141 4 0.404798 7.587650991702085 0.5821752122101912 4.240095189274804 0 2 2
315 32 8 -0.358962 0.5769491889028424 7.997181337068581 1.5460513402306186 0 0 0
379 38 9 -0.358962 9.836351886018058 0.19080849186690482 6.237718677329384 1 2 0
1405 141 8 -0.358962 8.573299800973638 1.1119910260384893 3.9344947503466097 0 2 2
844 85 4 0.404798 0.3583944422024557 3.5876270368719982 1.810686201997519 3 2 1
1406 141 2 -0.091672 5.123678692231785 0.4183283898012654 4.404134736785006 0 2 2
1013 102 7 -0.358962 5.65554381269469 5.9057885794110305 3.355122321476897 0 2 3
1059 106 9 -0.358962 0.647596132469991 5.5864560012682505 4.657408551636698 1 -1 -2
435 44 8 -0.358962 4.739617162411084 8.945921728919545 3.2583846143901383 0 4 1
1014 102 4 0.404798 4.260021607759986 5.737922049415131 6.573919709375247 0 2 3
1018 102 6 0.404798 7.915106174561466 6.1928012841349105 5.7616675258782175 0 2 3
841 85 1 -0.091672 0.759741664727672 2.2076184134503025 1.8896950815298519 3 2 1
1012 102 3 0.404798 5.585318866644745 5.877028868016055 4.512637478062005 0 2 3
150 15 10 -0.358962 5.075135302913535 10.142231264584863 6.527137294993809 1 -1 2
1407 141 5 0.404798 5.019728651091476 1.667347288263038 3.747287575545942 0 2 2
1011 102 1 -0.091672 5.543776610399581 5.837723283572285 5.885685372004213 0 2 3
1016 102 2 -0.091672 6.710808160178607 5.9034651150525335 6.540907003334202 0 2 3
856 86 2 -0.091672 1.6548978499932934 8.723802496222914 7.344430526735644 3 2 3
126 13 2 -0.091672 14.887241321883282 7.865225610773355 1.0569216407646977 -2 0 0
434 44 4 0.404798 5.610453096382381 9.640580231898754 3.581949670514231 0 4 1
431 44 1 -0.091672 6.737366977812128 10.360814201325368 4.0566627744265515 0 4 1
843 85 7 -0.358962 3.0558083970200114 1.345824449308141 1.1002370704596915 3 2 1
935 94 8 -0.358962 6.88758594802154 7.586821676029402 1.3743093882682746 3 1 0
1203 121 7 -0.358962 7.349750752724118 0.12338191025550332 0.81027882883877 1 -2 1
936 94 2 -0.091672 9.987082982951362 5.955906927014901 1.975953102285517 3 1 0
813 82 7 -0.358962 12.406427316324027 1.8855080539808022 0.822882539288884 0 0 2
446 45 2 -0.091672 14.738187305558878 7.291380485256488 6.763767708630985 1 -2 0
1015 102 8 -0.358962 3.2888176235419286 5.681161469187436 7.2056958260104835 0 2 3
931 94 1 -0.091672 9.376044483526641 7.1480375762125545 2.008456524047978 3 1 0
448 45 6 0.404798 15.322847812236446 8.190655460365102 5.827464133865452 1 -2 0
1052 106 3 0.404798 0.5413127465257113 1.5807222325456147 7.371091298192528 1 -1 -2
447 45 5 0.404798 13.871059801994543 6.341196107153894 6.216488151761761 1 -2 0
937 94 5 0.404798 9.372300147475578 4.680884559930973 1.8259185998475944 3 1 0
939 94 9 -0.358962 8.658878151334063 3.776844312872526 1.6868492358958815 3 1 0
940 94 10 -0.358962 12.459137504254674 5.593440808109578 2.6047974840964847 3 1 0
380 38 10 -0.358962 13.39087743270044 2.1537686526175173 4.77802246682912 1 2 0
562 57 3 0.404798 9.698712870114509 3.4961358775106337 7.227533381969306 2 -1 -2
932 94 3 0.404798 10.032425009267337 8.29847429617638 2.5529570050271473 3 1 0
432 44 3 0.404798 7.460152973578306 9.838907114163822 5.151694248633717 0 4 1
378 38 6 0.404798 12.908986544061394 1.6484502977874014 5.704324004608582 1 2 0
938 94 6 0.404798 11.356721816035838 5.725746734374555 2.268977885446761 3 1 0
127 13 5 0.404798 15.606557763850182 8.718634173644675 1.8546688450459532 -2 0 0
433 44 7 -0.358962 8.050048463060342 9.43029327352029 6.0630986833696365 0 4 1
377 38 5 0.404798 10.898651680512419 0.5808020511907065 6.492717079501809 1 2 0
121 13 1 -0.091672 15.491939518787747 6.743933386767853 0.6414173132251781 -2 0 0
312 32 3 0.404798 2.5756193710833926 5.448650876017634 0.05577784647206073 0 0 0
565 57 8 -0.358962 6.422851680070783 2.6213613067010146 7.728246167060653 2 -1 -2
130 13 10 -0.358962 12.573044514732866 8.680117422743121 0.3103291504344316 -2 0 0
845 85 8 -0.358962 0.06549441849096027 4.688520149645647 1.5919536445894051 3 2 1
851 86 1 -0.091672 0.4048466611041439 8.780543342988508 7.8237555951374524 3 2 3
1444 145 4 0.404798 13.239978989835329 2.3063356352528803 15.509676975326116 2 1 1
230 23 10 -0.358962 14.989571979468188 5.150129668717332 12.693693399139576 0 0 -1
484 49 4 0.404798 3.837569663447237 3.0908996892367693 12.503111257056732 1 -1 -1
482 49 3 0.404798 3.241917726073342 3.210121961427208 10.218258016454621 1 -1 -1
481 49 1 -0.091672 3.8532581108102724 2.485601725500933 11.26228065587998 1 -1 -1
758 76 6 0.404798 6.493080910123049 3.1779961400959804 15.006082112053818 0 -1 0
1019 102 9 -0.358962 6.794080077925839 5.953162068808581 9.132236845758039 0 2 3
896 90 2 -0.091672 3.4878119137715426 9.144617090601477 12.55131239442768 0 2 -1
490 49 10 -0.358962 4.400018219213972 0.22867037561150286 8.651460704593228 1 -1 -1
894 90 4 0.404798 3.4648835480433826 6.862369189959921 11.739039483496125 0 2 -1
897 90 5 0.404798 4.826728158931429 9.447746446109681 12.326220885314756 0 2 -1
485 49 8 -0.358962 3.662088000452882 3.5689480567068883 13.545356882893396 1 -1 -1
486 49 2 -0.091672 4.443387334952544 1.304183659138117 11.035126840895401 1 -1 -1
487 49 5 0.404798 5.073130498535041 0.44547060446672676 11.993534401778982 1 -1 -1
488 49 6 0.404798 4.369078022118613 0.6930747086771486 9.713991326671115 1 -1 -1
891 90 1 -0.091672 2.8541620841884026 7.97444983879133 12.393843316426974 0 2 -1
895 90 8 -0.358962 4.01489454375087 6.0224846334762745 11.157935501582537 0 2 -1
374 38 4 0.404798 11.877368085492527 0.16309424434289183 8.979966277441074 1 2 0
898 90 6 0.404798 2.656488116868362 10.235905815142965 13.038593265525195 0 2 -1
483 49 7 -0.358962 2.7060157375089564 3.7692229694583372 9.35465213118322 1 -1 -1
893 90 7 -0.358962 0.35653427812246097 7.801978162167775 12.780626688473802 0 2 -1
892 90 3 0.404798 1.5112259816283078 7.867855929632099 12.691479611082718 0 2 -1
899 90 9 -0.358962 5.929389707560982 9.75946173866053 12.145746258538166 0 2 -1
760 76 10 -0.358962 6.710478328954352 2.32875820499071 14.246389218000184 0 -1 0
752 76 3 0.404798 6.902048172449305 6.213289482067682 14.955895978460532 0 -1 0
1250 125 10 -0.358962 13.082619605768205 9.93347916661152 8.531418057392852 3 1 0
373 38 7 -0.358962 15.144628808029388 1.1603266088725732 8.495470741480332 1 2 0
228 23 6 0.404798 14.940713188941729 6.307647549167829 12.635683252990034 0 0 -1
1245 125 8 -0.358962 7.224831420732843 9.124276722214733 9.138189599026411 3 1 0
1373 138 7 -0.358962 3.389436872994073 0.2586949279090831 14.811160853708573 3 2 1
372 38 3 0.404798 14.010262477597626 1.0143754268846743 8.301792440861552 1 2 0
1445 145 8 -0.358962 14.176312348402858 2.465789038916776 14.843753213153294 2 1 1
224 23 4 0.404798 15.560366752655694 9.904468520075742 13.2319252892265 0 0 -1
627 63 5 0.404798 9.503568287283173 9.228104526099397 12.894161659729093 1 1 1
444 45 4 0.404798 14.119600235660439 6.524133055817863 8.973226437735017 1 -2 0
371 38 1 -0.091672 12.703402569091656 0.7030835324707069 7.930502588282281 1 2 0
1241 125 1 -0.091672 9.654725566228906 10.017401673676137 9.160861359667905 3 1 0
623 63 7 -0.358962 12.641777187672576 6.071060695538818 14.817356437743896 1 1 1
1248 125 6 0.404798 11.98559070002679 9.626584510008508 8.750377664550946 3 1 0
564 57 4 0.404798 7.528345508898403 2.857010946424364 7.988923472717468 2 -1 -2
570 57 10 -0.358962 11.928370828754435 3.2141672237369754 9.96762793509569 2 -1 -2
1449 145 9 -0.358962 10.950336431489424 3.2684271563385328 13.140834225221244 2 1 1
621 63 1 -0.091672 10.776472389396536 7.183248756248397 13.483941518248722 1 1 1
567 57 5 0.404798 8.670469359259622 2.4147475428805225 10.62719839468228 2 -1 -2
566 57 2 -0.091672 9.434039336714475 2.9637499434576604 9.566807472349119 2 -1 -2
625 63 8 -0.358962 10.056807878338995 5.945972251112026 11.304384119010427 1 1 1
624 63 4 0.404798 10.394327024555952 6.446102591281975 12.295116412979578 1 1 1
622 63 3 0.404798 11.780880997098944 6.651026242078291 14.299574897224648 1 1 1
1244 125 4 0.404798 8.276423854880408 9.612835588448176 9.170802310408469 3 1 0
1447 145 5 0.404798 11.00024695960799 2.867556933544509 14.228221935460411 2 1 1
445 45 8 -0.358962 13.343814724758252 6.091973070630072 9.719547138925593 1 -2 0
859 86 9 -0.358962 3.6947575747646213 9.08590314994027 8.84589052100786 3 2 3
561 57 1 -0.091672 8.879901902936057 3.1892484895929276 8.367773645550049 2 -1 -2
1446 145 2 -0.091672 10.868623262631296 2.437770478215718 15.619263360822824 2 1 1
226 23 2 -0.091672 14.786741177730962 7.716699535980992 12.688479667492675 0 0 -1
753 76 7 -0.358962 7.1522536710723426 6.855294057857704 14.022714681142846 0 -1 0
1017 102 5 0.404798 6.702071579224101 5.95423459820159 7.975892048854236 0 2 3
569 57 9 -0.358962 8.037203472576829 1.9829419936875965 11.49789827740779 2 -1 -2
626 63 2 -0.091672 10.327352377837439 8.408013636523608 13.790278274468879 1 1 1
229 23 9 -0.358962 12.750136997411657 8.792140703762222 11.577400694971733 0 0 -1
568 57 6 0.404798 10.788653365350427 3.0791284729812594 9.799079300823445 2 -1 -2
628 63 6 0.404798 10.644679386021817 9.085135216515091 15.017929845024058 1 1 1
857 86 5 0.404798 2.747618892396959 8.833502407898838 8.225550140342593 3 2 3
227 23 5 0.404798 13.700437718263563 8.329117473058771 12.05503866572424 0 0 -1
1246 125 2 -0.091672 10.648448197984973 9.183443300439537 8.825259259823362 3 1 0
441 45 1 -0.091672 14.94438924756908 7.335816978381516 8.08706138787142 1 -2 0
1247 125 5 0.404798 10.450705538271347 7.811425045885399 8.511065974842738 3 1 0
113 12 7 -0.358962 5.094209293627309 10.163922984925492 15.460955222739901 -2 -2 -4
629 63 9 -0.358962 8.881066096505556 9.92336301316291 12.205172066529041 1 1 1
1603 161 7 -0.358962 0.35651794653580277 3.4807878174610836 12.968573532898308 2 1 -1
854 86 4 0.404798 0.0961249525650398 9.033666028746795 9.221020183895039 3 2 3
1053 106 7 -0.358962 0.28074878980092316 0.6148883364038801 7.958348758487312 1 -1 -2
139 14 9 -0.358962 0.07809406985017187 9.227831352794198 15.528503383724253 3 2 -3
1249 125 9 -0.358962 10.156429403756775 6.694388834759117 8.405086383326204 3 1 0
1452 146 3 0.404798 5.011787437570032 4.766081554206082 21.62419301262576 2 -1 0
1451 146 1 -0.091672 5.7078402550847365 5.992658765329498 21.33368715625702 2 -1 0
1456 146 2 -0.091672 7.030243794862712 5.994511928806841 21.550125256112516 2 -1 0
1455 146 8 -0.358962 4.518330006836205 8.106544432573266 20.561496959546766 2 -1 0
1454 146 4 0.404798 5.014208034533493 7.100541948472977 20.857578008045394 2 -1 0
754 76 4 0.404798 6.07484471980496 6.116577894529016 17.26146615342932 0 -1 0
1457 146 5 0.404798 7.81021832739948 7.205663819604081 21.30146612664394 2 -1 0
890 89 10 -0.358962 15.124096237006565 3.268556072251889 19.743872494974678 2 -1 -1
1377 138 5 0.404798 2.473936989947861 2.784049542250125 18.89938512122629 3 2 1
1378 138 6 0.404798 3.0365942045841394 0.41815083407858455 18.63561875774606 3 2 1
1513 152 7 -0.358962 15.194583649357734 6.989883256078892 20.217238689029625 -1 0 1
140 14 10 -0.358962 2.505071800907976 6.27147891986477 17.577919830779127 3 2 -3
1371 138 1 -0.091672 2.875299241596445 1.9175088624257077 16.739902593629353 3 2 1
990 99 10 -0.358962 0.6353115233724302 4.139372507763838 22.888351699159003 4 0 -3
1376 138 2 -0.091672 2.758337307072424 1.6776377414723764 18.05305976327774 3 2 1
138 14 6 0.404798 1.4543482391738576 6.636905989390283 17.249220796510528 3 2 -3
1458 146 6 0.404798 7.755043652510806 4.84289020429554 21.87033562426796 2 -1 0
1529 153 9 -0.358962 0.5447348378204706 8.489614039510036 20.3660592549378 2 -2 -1
136 14 2 -0.091672 0.16409093855600035 7.050346815299471 16.926448799914127 3 2 -3
1460 146 10 -0.358962 8.386906996685617 3.9038792832782123 22.12451509805622 2 -1 0
759 76 9 -0.358962 5.696426478025575 2.9115416133381253 18.321463234169602 0 -1 0
757 76 5 0.404798 5.91663502468037 3.4430986525215412 17.31421186742419 0 -1 0
116 12 2 -0.091672 6.467140703320735 10.131260991366014 18.628677109689875 -2 -2 -4
137 14 5 0.404798 0.09983094720673413 8.266322681168143 16.177062239838904 3 2 -3
756 76 2 -0.091672 6.183190975615221 4.110208526415009 16.056550636317855 0 -1 0
1453 146 7 -0.358962 4.394473405693054 3.7874281578611138 21.70641796505975 2 -1 0
1524 153 4 0.404798 0.678868459677553 6.838084094709363 23.462962557916402 2 -2 -1
751 76 1 -0.091672 6.419187297327021 5.428986078734478 16.02950416013724 0 -1 0
1520 152 10 -0.358962 11.813315938998558 4.916261663328531 20.83818492374163 -1 0 1
987 99 5 0.404798 2.7765888059395114 1.4047211681119862 22.887800849739246 4 0 -3
988 99 6 0.404798 1.2713999773149736 3.2599409130239723 23.29773117703295 4 0 -3
755 76 8 -0.358962 5.682553210315881 6.646503370983695 18.215869822104327 0 -1 0
1379 138 9 -0.358962 2.3171368495423015 3.7260691679963243 19.557877903253623 3 2 1
1448 145 6 0.404798 9.53718146926693 2.222177772015781 16.176544041643144 2 1 1
1516 152 2 -0.091672 12.114437121436413 6.379865114928716 18.769581827505128 -1 0 1
517 52 5 0.404798 11.914916264730962 0.7811124604976456 22.93111197341365 0 -1 -1
118 12 6 0.404798 7.412593908935658 9.329447180726111 17.914548869340127 -2 -2 -4
630 63 10 -0.358962 10.977984200682714 9.70309373144631 15.941312310865092 1 1 1
1532 154 3 0.404798 12.667426227357739 10.411011063887416 22.49158855474644 0 0 1
603 61 7 -0.358962 9.101434790058399 1.9373426579021833 19.628804417379254 -1 3 -2
120 12 10 -0.358962 7.99746958460964 8.720030812055567 17.119481490138647 -2 -2 -4
1450 145 10 -0.358962 8.505600192034182 1.8894729017896459 16.58976014282796 2 1 1
1459 146 9 -0.358962 8.592598942153419 8.049698439672452 21.156255398723065 2 -1 0
1441 145 1 -0.091672 12.024028473108173 2.162110649373734 16.2394653134133 2 1 1
1519 152 9 -0.358962 10.232674618417596 6.5078797296336415 17.061220037049036 -1 0 1
511 52 1 -0.091672 13.854690725096857 2.1729579271609527 23.06408029166693 0 -1 -1
1531 154 1 -0.091672 11.67933369401493 9.809170563211953 23.262816064756414 0 0 1
1540 154 10 -0.358962 13.579282648526368 6.891798759898132 23.254501207118963 0 0 1
1515 152 8 -0.358962 13.604493218702155 8.62342566459286 16.514099751998025 -1 0 1
1514 152 4 0.404798 13.419070628802647 7.876253144760226 17.381827649647995 -1 0 1
516 52 2 -0.091672 13.187171929042464 1.1668230088722096 22.48295105462018 0 -1 -1
1517 152 5 0.404798 11.082662815289448 6.437200211581331 17.847428966989572 -1 0 1
518 52 6 0.404798 13.635644715239494 0.48183613021903293 21.308674178808968 0 -1 -1
1511 152 1 -0.091672 13.257680920426624 7.04844335996189 18.565629022698335 -1 0 1
1512 152 3 0.404798 14.293681908762835 6.984563159660645 19.48652140139241 -1 0 1
1518 152 6 0.404798 11.988329237811085 5.647155590440359 19.954576169073313 -1 0 1
1374 138 4 0.404798 2.4534456872152766 3.1198031602911795 16.13505710364032 3 2 1
1538 154 6 0.404798 12.797891591576038 7.727540426464742 23.44571807907689 0 0 1
1443 145 7 -0.358962 12.118311991975363 0.900701563360739 18.5534566900871 2 1 1
512 52 3 0.404798 15.190867524780401 2.451793858074595 22.64448742627912 0 -1 -1
602 61 3 0.404798 8.655762224056696 0.8762836895999151 19.77416545021168 -1 3 -2
989 99 9 -0.358962 3.292871598419929 0.6862058409060601 22.13760900574744 4 0 -3
1375 138 8 -0.358962 2.1663112502555295 4.1931059144756375 15.801627919366398 3 2 1
1442 145 3 0.404798 12.142921990287677 1.4306623805446976 17.521887068109386 2 1 1
519 52 9 -0.358962 10.856664020610408 0.5401827440707182 23.34056901287386 0 -1 -1
1372 138 3 0.404798 3.138254102767869 0.924077225701291 15.727552480769383 3 2 1
340 34 10 -0.358962 10.2833509906528 10.295259754599549 19.089612668825303 -2 -3 0
520 52 10 -0.358962 13.974712648519844 0.06362378013707826 20.28118628735165 0 -1 -1
981 99 1 -0.091672 2.1261540388973788 2.065282832797333 25.16214773937443 4 0 -3
984 99 4 0.404798 2.889997543353501 1.0620000285803357 25.780671252909425 4 0 -3
945 95 8 -0.358962 2.8292771338184584 9.031241262702068 25.801060266392142 -3 3 1
985 99 8 -0.358962 3.5679237561179447 0.25095373854404546 26.258394989664424 4 0 -3
946 95 2 -0.091672 0.6504469411697 6.926122808431881 27.401071370007095 -3 3 1
983 99 7 -0.358962 0.9929063512868895 3.881657359882263 26.631972994446166 4 0 -3
507 51 5 0.404798 7.302686471276398 8.334422733422663 27.309083870865248 3 1 1
509 51 9 -0.358962 7.498082883358521 9.414280962137667 27.685017972372044 3 1 1
982 99 3 0.404798 1.485360235412706 3.0392549759688734 26.004719141437686 4 0 -3
506 51 2 -0.091672 6.877756796315992 7.059334049755328 26.930024808359423 3 1 1
510 51 10 -0.358962 7.534041356058855 4.997797696035371 28.391436448542503 3 1 1
508 51 6 0.404798 7.40627924216685 5.957610665255109 27.75265956295363 3 1 1
1425 143 8 -0.358962 1.277073108557075 0.02593702613449938 28.02569751075597 -3 2 1
122 13 3 0.404798 14.904337737213538 5.856269217187814 30.993778552531136 -2 0 -1
944 95 4 0.404798 1.8123771866818237 8.623994306419828 26.182720358282193 -3 3 1
1209 121 9 -0.358962 3.2457144475228783 2.4100143523036714 28.330119355268 1 -2 0
158 16 6 0.404798 11.151457764744414 10.243263356588521 27.565194021607986 0 -1 0
501 51 1 -0.091672 6.018621978208691 6.871158824457321 25.919046343546654 3 1 1
949 95 9 -0.358962 2.951993434893385 6.103844260660921 28.165982977814593 -3 3 1
947 95 5 0.404798 1.917721632296439 6.422659454060823 27.748563861144802 -3 3 1
941 95 1 -0.091672 0.6308751326289955 8.035658379890924 26.64997366364247 -3 3 1
505 51 8 -0.358962 5.028286061286847 8.67878224072107 24.34967142151527 3 1 1
1201 121 1 -0.091672 5.656975929678989 0.6294408059896207 30.220034709553282 1 -2 0
504 51 4 0.404798 5.501936822952652 7.866770127920862 25.0292972633404 3 1 1
123 13 7 -0.358962 14.324453975653602 5.1639002554030675 30.265795004653498 -2 0 -1
318 32 6 0.404798 4.733747025543076 7.40963336914604 30.28847881936767 0 0 -1
1339 134 9 -0.358962 15.055839582795288 4.9708000128186836 24.81828570891062 -1 2 2
1483 149 7 -0.358962 7.025512437474364 2.2401268745327436 25.415341201566786 -1 1 -2
1206 121 2 -0.091672 5.257812783990467 1.8716649725783423 29.91483329142462 1 -2 0
320 32 10 -0.358962 5.662919300736231 7.077046272226916 29.678868528922013 0 0 -1
1207 121 5 0.404798 4.193997514627877 2.208931088610034 28.967241593709975 1 -2 0
316 32 2 -0.091672 3.5864322433354485 7.728663137314254 31.13810379087714 0 0 -1
1337 134 5 0.404798 15.575396469769093 5.1756387228622325 25.834996951801852 -1 2 2
1539 154 9 -0.358962 9.915706913630974 7.6068449097852415 25.261977405290935 0 0 1
502 51 3 0.404798 5.473594031769864 5.6161396677151005 25.620830061529347 3 1 1
1490 149 10 -0.358962 8.455862997556011 1.696933357881447 29.301749483255488 -1 1 -2
503 51 7 -0.358962 4.823357152391992 4.66085846893035 25.51968742204233 3 1 1
313 32 7 -0.358962 2.6656708620428695 4.303093388725164 31.200068121139317 0 0 -1
986 99 2 -0.091672 2.092042167496175 2.223144771667336 23.831916181938244 4 0 -3
1334 134 4 0.404798 14.585635100268355 7.40071911664546 27.20311764754285 -1 2 2
718 72 6 0.404798 14.789518953209262 1.8536338322497623 27.39876890217101 1 2 1
515 52 8 -0.358962 12.81596612596953 3.442684279840203 25.028031944070406 0 -1 -1
159 16 9 -0.358962 9.788817185797734 7.496239551681191 29.10350219057975 0 -1 0
1537 154 5 0.404798 10.785470201124847 8.02564234209049 24.618766293225253 0 0 1
157 16 5 0.404798 10.062412779846806 8.604931727999857 28.899671104413244 0 -1 0
1487 149 5 0.404798 10.698195478050957 4.0231541814158795 28.04459409794263 -1 1 -2
514 52 4 0.404798 13.343862890209913 2.8225216499787757 24.202003300007988 0 -1 -1
1486 149 2 -0.091672 9.615917393448335 3.2184056435818524 27.501032329650187 -1 1 -2
720 72 10 -0.358962 13.680225615629945 1.9788880380844063 27.714014335646414 1 2 1
1335 134 8 -0.358962 13.734432600410711 8.052314319927916 26.759859212823283 -1 2 2
1485 149 8 -0.358962 10.319952124562553 4.807243356038144 24.37705856945249 -1 1 -2
1484 149 4 0.404798 9.869185098477804 4.179239011109282 25.24193985107787 -1 1 -2
156 16 2 -0.091672 10.248342439025892 9.990690671578962 28.571866353756782 0 -1 0
1210 121 10 -0.358962 6.1451334662857695 3.869396426915725 31.28477889430633 1 -2 0
1482 149 3 0.404798 8.000426131529919 2.74215791343687 25.793637589054864 -1 1 -2
1536 154 2 -0.091672 11.774488152548415 8.572235251593456 23.76931058749863 0 0 1
1424 143 4 0.404798 0.41027237685002715 0.47349916139145476 28.653347597404746 -3 2 1
1488 149 6 0.404798 8.913357893112329 2.398466623968122 28.499160224201983 -1 1 -2
1481 149 1 -0.091672 9.177491420392826 3.3725151924536867 26.244197845773044 -1 1 -2
1489 149 9 -0.358962 11.56797591737199 4.63387647530712 28.509459958388145 -1 1 -2
1208 121 6 0.404798 5.726607344822195 3.004408859164043 30.634984769128128 1 -2 0
1525 153 8 -0.358962 1.787703337806158 6.830671930144108 23.803594752883058 2 -2 -1
317 32 5 0.404798 3.3991075578812606 9.09337586377345 31.29487789688755 0 0 -1
1202 121 3 0.404798 6.589758636353017 0.3742473588157861 31.273589294319628 1 -2 0
1113 112 7 -0.358962 0.3354782073751189 0.015623436430036719 24.465736836232598 -3 -1 -1
141 15 1 -0.091672 4.403430035721329 13.478186879060218 6.7430787039176385 1 -1 2
1291 130 1 -0.091672 6.376839142499614 17.546125471798835 4.728581684407179 -1 0 4
439 44 9 -0.358962 5.520152775773671 12.752132334368337 1.9101118717117935 0 4 1
147 15 5 0.404798 2.5805546841438898 12.402012130729425 5.556964960132208 1 -1 2
149 15 9 -0.358962 1.6201440995725966 12.381465549093251 4.906742419526189 1 -1 2
30 3 10 -0.358962 0.9801312839278133 11.284053971476466 2.3249209205219565 1 -1 1
594 60 4 0.404798 4.179572483764154 15.159114187981475 0.8503773645291202 1 0 4
28 3 6 0.404798 0.4994412804609575 12.33672600163264 2.244803971199585 1 -1 1
437 44 5 0.404798 6.212991710666278 12.216266138882338 2.67065223187473 0 4 1
1294 130 4 0.404798 7.242856815799306 16.52343805905252 4.220724678223112 -1 0 4
1293 130 7 -0.358962 3.9260529589576207 17.32751334518953 4.073084977432231 -1 0 4
1103 111 7 -0.358962 8.667283441900237 20.59320563254084 3.7158070939385386 4 0 3
1296 130 2 -0.091672 6.810582850345118 18.498075982057447 5.565992364488299 -1 0 4
1292 130 3 0.404798 5.037436621845065 17.393884615084648 4.398693962320674 -1 0 4
1106 111 2 -0.091672 6.25327617079249 19.303633986472004 1.5274631631576305 4 0 3
1295 130 8 -0.358962 7.741859761827282 15.58712879154832 3.7517672904032744 -1 0 4
1298 130 6 0.404798 5.95516351143007 19.4486150778084 6.218737974257783 -1 0 4
1297 130 5 0.404798 8.163950343294605 18.578912556170135 5.889878480342196 -1 0 4
240 24 10 -0.358962 15.137657450178029 11.882426158016928 3.1271248722483564 -1 -1 2
427 43 5 0.404798 11.186918133964458 15.953639507062432 6.994044185416589 -1 2 -1
1299 130 9 -0.358962 9.239794727674955 18.766293305322627 6.281091103242497 -1 0 4
1228 123 6 0.404798 13.465505173242311 16.83359810740666 0.0751033177303699 4 -2 2
678 68 6 0.404798 15.598863367750104 16.553448883588054 4.451513873348821 0 -2 0
56 6 2 -0.091672 14.413660266062228 20.623686255644532 6.177651519284163 -2 2 3
595 60 8 -0.358962 3.315500544420555 15.592981766795903 1.4912663295303104 1 0 4
436 44 2 -0.091672 6.9862069032895935 11.632580774867815 3.715651809989574 0 4 1
1107 111 5 0.404798 5.0232826248833184 19.058315005488424 0.924726391258655 4 0 3
173 18 7 -0.358962 0.9086387860575407 20.43421923650686 5.972977678063639 3 2 -2
679 68 9 -0.358962 14.2155066542187 15.03826025252549 1.8524170806337092 0 -2 0
593 60 7 -0.358962 7.528404871013884 15.436297273497006 0.647393268344156 1 0 4
146 15 2 -0.091672 3.7657284473125863 12.395946987253268 6.276502336795791 1 -1 2
148 15 6 0.404798 4.450447476601909 11.104335882103461 6.354742900433695 1 -1 2
1109 111 9 -0.358962 4.09757231308342 18.835040120846816 0.2622999817559929 4 0 3
1101 111 1 -0.091672 6.346218739415056 20.046616562198057 2.638741065048012 4 0 3
1102 111 3 0.404798 7.643011817298758 20.344549155118152 3.2314130400382783 4 0 3
429 43 9 -0.358962 11.205474323102695 15.320383418214785 6.022322806566049 -1 2 -1
142 15 3 0.404798 5.669222311071251 13.311947786398653 7.37596572246258 1 -1 2
1226 123 2 -0.091672 12.391216140491126 17.099120770248092 0.9775509777410386 4 -2 2
236 24 2 -0.091672 12.806229162318198 12.428328011495488 2.1542253331533114 -1 -1 2
145 15 8 -0.358962 3.357639037700883 15.81193041949942 6.797285694939946 1 -1 2
238 24 6 0.404798 14.093481830568226 12.08538201531047 2.6644087579672786 -1 -1 2
233 24 7 -0.358962 11.649524602639426 11.779208988297537 5.4437559511952935 -1 -1 2
440 44 10 -0.358962 8.775133473372557 13.152190902941484 4.801353591098393 0 4 1
1224 123 4 0.404798 11.408411337480773 18.077601967745586 2.888189787488992 4 -2 2
1222 123 3 0.404798 13.529053758343911 19.018504101857406 2.022339984481998 4 -2 2
232 24 3 0.404798 11.699737917878029 12.12659061203496 4.33813185780163 -1 -1 2
1104 111 4 0.404798 5.184173681771315 20.519630358662347 3.3495964611483466 4 0 3
234 24 4 0.404798 10.446963981430747 12.511260658613415 2.3172496517938863 -1 -1 2
1227 123 5 0.404798 11.498946798488365 15.99968260990889 1.06418489347264 4 -2 2
52 6 3 0.404798 12.097376001121944 20.494374790803157 6.682937665629959 -2 2 3
677 68 5 0.404798 15.058899444071393 15.677418784723784 2.327564407683674 0 -2 0
53 6 7 -0.358962 11.326463690920125 20.02420418908673 7.41110923009019 -2 2 3
1110 111 10 -0.358962 8.362945785166293 18.15800225045457 0.5260069078606254 4 0 3
1223 123 7 -0.358962 14.385203090102953 19.796487115711965 2.1080765130417882 4 -2 2
231 24 1 -0.091672 11.730033789447424 12.459776697215895 2.951981259899345 -1 -1 2
237 24 5 0.404798 12.61688376523057 12.746447524287898 0.7871765768992756 -1 -1 2
235 24 8 -0.358962 9.380292849297597 12.456350749673199 1.8647039634963212 -1 -1 2
1108 111 6 0.404798 7.394694905311139 18.644722551986984 0.9397623726394378 4 0 3
438 44 6 0.404798 7.950850552716876 12.444187213436228 4.395289002820332 0 4 1
1221 123 1 -0.091672 12.41937214610723 18.054587154416044 1.9166416169575782 4 -2 2
1225 123 8 -0.358962 10.536836698707804 18.06349615782447 3.653538524034268 4 -2 2
144 15 4 0.404798 3.7794396954055087 14.735662131066507 6.700689722003769 1 -1 2
1300 130 10 -0.358962 5.305236821846598 20.180730045508692 6.8409943302636895 -1 0 4
58 6 6 0.404798 14.68627127012625 20.2200433278894 7.511226386605907 -2 2 3
1229 123 9 -0.358962 10.632144304808614 15.229786025089536 1.103078245382734 4 -2 2
680 68 10 -0.358962 15.463929521231156 16.53293924549858 5.603456672310383 0 -2 0
1417 142 5 0.404798 0.2728209180312286 15.218784453159465 7.72331889406172 0 0 0
1420 142 10 -0.358962 0.3068343713492481 17.25392494468815 4.974222361915522 0 0 0
592 60 3 0.404798 6.509438360533682 15.104077220281937 0.203617322448419 1 0 4
543 55 7 -0.358962 10.286640028539397 20.33995427965954 0.011971773878215686 0 -1 1
1045 105 8 -0.358962 3.1319027568635547 16.689163174089284 14.488255562446735 0 0 1
1072 108 3 0.404798 5.929808139702647 15.926640763670198 10.441432179153157 2 0 2
1071 108 1 -0.091672 7.021539833975015 16.00433487856577 11.40601020143248 2 0 2
1080 108 10 -0.358962 6.965003517803259 12.530781242397406 11.129870490385303 2 0 2
1078 108 6 0.404798 7.26131057320646 13.595402438857603 11.482551433080944 2 0 2
1076 108 2 -0.091672 7.589783635186529 14.897878694751565 11.904461505545639 2 0 2
1074 108 4 0.404798 7.46335283055725 17.293375384531217 11.852689032425216 2 0 2
1574 158 4 0.404798 2.382729811538088 19.35668455560509 11.339418308871176 -1 -3 1
1075 108 8 -0.358962 7.9256578323125995 18.265101517858085 12.285843073147744 2 0 2
1575 158 8 -0.358962 2.6565188270717695 18.32426759345295 11.79191670679504 -1 -3 1
1589 159 9 -0.358962 10.25158854646291 18.78776239995802 14.392325159063683 1 -1 1
1419 142 9 -0.358962 0.8785877488530789 14.298238976106335 8.085593062896146 0 0 0