LAMMPS data file via write_data, version 29 Sep 2021, timestep = 2000000

2000 atoms
20 atom types
1800 bonds
9 bond types
2000 angles
10 angle types
2400 dihedrals
12 dihedral types

0 32.029 xlo xhi
0 32.029 ylo yhi
0 32.029 zlo zhi
0 0 0 xy xz yz

Masses

1 12.01
2 12.01
3 12.01
4 12.01
5 12.01
6 12.01
7 14.01
8 14.01
9 14.01
10 14.01
11 0.0001
12 0.0001
13 0.0001
14 0.0001
15 0.0001
16 0.0001
17 0.0001
18 0.0001
19 0.0001
20 0.0001

Bond Coeffs # harmonic

1 400 1.426
2 400 1.426
3 400 1.426
4 400 1.426
5 549 1.34
6 650 1.16
7 650 1.16
8 650 1.16
9 650 1.16

Angle Coeffs # harmonic

1 70 116.8
2 70 116.8
3 70 121.6
4 70 121.6
5 70 121.6
6 70 121.6
7 70 178.9
8 70 178.9
9 70 178.9
10 70 178.9

Dihedral Coeffs # opls

1 0 0 0 0
2 0 0 0 0
3 0 0 0 0
4 0 0 0 0
5 0 0 0 0
6 0 0 0 0
7 0 0 0 0
8 0 0 0 0
9 0 14 0 0
10 0 14 0 0
11 0 14 0 0
12 0 14 0 0

Atoms # full

1644 165 4 0.404798 10.309540313982154 0.8369847946258754 3.9861390150957186 5 -1 1
1642 165 3 0.404798 9.683140948233357 3.174024584200922 3.6062230515404883 5 -1 1
623 63 7 -0.358962 1.388381602344281 9.896193152479821 7.922681568244603 1 1 -1
555 56 8 -0.358962 11.23846502682338 7.0233941553026105 7.3018568299216895 3 2 0
131 14 1 -0.091672 12.239258101869769 1.292113762655258 7.118892936527133 0 0 -1
601 61 1 -0.091672 5.453285933994532 2.8318761623754733 6.8477595366418065 4 -2 -1
383 39 7 -0.358962 14.070849487540402 7.521494891604188 5.651875705649152 -3 0 1
1505 151 8 -0.358962 1.6226006798684947 2.537955328268892 4.6998236920287955 2 1 1
887 89 5 0.404798 3.8522864254089138 10.22069579771291 2.4000241695149596 -1 0 0
609 61 9 -0.358962 2.197033309982572 1.5210471588779066 7.4260629026792655 4 -2 -1
606 61 2 -0.091672 4.69626411706591 2.142435553429269 7.742126468513428 4 -2 -1
526 53 2 -0.091672 4.99138890915002 6.017515027004706 1.2317066041987366 3 -2 1
107 11 5 0.404798 13.781905370484834 0.5849369318677351 1.7198181759671036 0 1 0
334 34 4 0.404798 12.587625050463743 9.549830689555044 7.320136875990323 1 1 1
101 11 1 -0.091672 15.932860509562635 1.5921610609933483 1.458916956009407 0 1 0
1643 165 7 -0.358962 9.894021417278694 4.296775507913088 3.6795664296822768 5 -1 1
603 61 7 -0.358962 7.962540921707466 3.4188475952491806 7.220413479525265 4 -2 -1
723 73 7 -0.358962 2.5182573621192956 2.178710791534641 1.1908313259209502 3 -3 0
1650 165 10 -0.358962 6.458228833403401 3.441390852390638 2.946442093020274 5 -1 1
492 50 3 0.404798 7.7216222411073305 9.643007528976463 7.082526706385842 -1 0 1
524 53 4 0.404798 2.5756842524099386 5.788917098208822 0.9644575094763396 3 -2 1
523 53 7 -0.358962 3.4532250708313614 6.2149657170524355 4.344398396956817 3 -2 1
521 53 1 -0.091672 3.7769057953108303 6.136784186034016 1.769692530230298 3 -2 1
138 14 6 0.404798 14.381361392070453 2.027365794699801 7.913335547792677 0 0 -1
553 56 7 -0.358962 7.196101157894787 6.4188260270549105 6.132759943908701 3 2 0
499 50 9 -0.358962 3.164208268467632 9.110817208359714 5.71082184555475 -1 0 1
624 63 4 0.404798 3.168405763943622 6.975786150554788 7.930722095384185 1 1 -1
861 87 1 -0.091672 0.3728759665951578 7.773721068069798 4.166712801920251 -1 1 0
889 89 9 -0.358962 3.092123161851758 9.358137125657166 2.45482248520926 -1 0 0
554 56 4 0.404798 10.17286622534491 6.744056886023026 7.718148186432225 3 2 0
862 87 3 0.404798 0.7180598784623579 9.134855130040016 4.089428966249038 -1 1 0
607 61 5 0.404798 3.3218333246957665 1.869579049443396 7.607246366033886 4 -2 -1
335 34 8 -0.358962 11.98558549209825 9.602006142064587 6.348219743551201 1 1 1
1645 165 8 -0.358962 11.181046202176342 0.09666008877427576 4.325512687551003 5 -1 1
743 75 7 -0.358962 12.63318684104744 6.26995738992078 3.9071710593488627 4 -2 -1
722 73 3 0.404798 2.641953607789798 1.5012502180890568 0.2579378539176449 3 -3 0
59 6 9 -0.358962 9.520471838907818 7.951389326993466 0.51991179833223 -3 0 2
525 53 8 -0.358962 1.59648027028242 5.659140153974875 0.3892129767749664 3 -2 1
108 11 6 0.404798 14.461269298205064 2.401794350931302 3.1912138140748745 0 1 0
1590 159 10 -0.358962 14.280777514336904 4.600628704069874 1.146066526439523 2 0 4
497 50 5 0.404798 4.333299667819132 9.153530655378693 5.6509845604513185 -1 0 1
748 75 6 0.404798 9.545052693136972 8.061230145702133 3.8019449549524635 4 -2 -1
1646 165 2 -0.091672 8.08684349349819 1.4636017938132289 3.1878276580499096 5 -1 1
870 87 10 -0.358962 0.008586900167633497 8.349898036600667 0.7617300608682211 -1 1 0
1925 193 8 -0.358962 10.667680764024272 5.738435698876444 1.9278306252372193 -2 -1 0
625 63 8 -0.358962 4.079130346204871 6.5272930202026505 7.371641541652961 1 1 -1
750 75 10 -0.358962 8.864527349631054 7.464571785304517 4.576722908278821 4 -2 -1
1647 165 5 0.404798 7.570889406131414 0.1442024714002106 3.0487306930041185 5 -1 1
530 53 10 -0.358962 7.293537134068376 6.5940425610392825 2.3390327478850836 3 -2 1
864 87 4 0.404798 0.48119620215087605 7.2127993009089915 5.44763022498906 -1 1 0
552 56 3 0.404798 7.917518653227791 6.38719773692846 7.056259993465297 3 2 0
110 11 10 -0.358962 14.072690446132675 3.040175427028073 4.078981051839671 0 1 0
528 53 6 0.404798 6.256095473706595 6.31274463822837 1.8874019378560019 3 -2 1
522 53 3 0.404798 3.593619725283692 6.204117487925358 3.248874186298078 3 -2 1
491 50 1 -0.091672 6.377565895903003 9.313001218601276 6.8700249842588015 -1 0 1
1979 198 9 -0.358962 0.37374810661351293 0.7575989116721946 2.6504280593249283 2 3 4
496 50 2 -0.091672 5.772178886849163 9.190730231301309 5.654950174324176 -1 0 1
741 75 1 -0.091672 11.704359127757165 8.509247319556032 2.9199938195472046 4 -2 -1
744 75 4 0.404798 12.668812807902789 9.17989186369404 2.1075451049796285 4 -2 -1
865 87 8 -0.358962 0.4559090455146698 6.749744465565354 6.502100426464121 -1 1 0
136 14 2 -0.091672 13.535695027341198 1.0474542166723266 7.3192212493050235 0 0 -1
1641 165 1 -0.091672 9.33049068749461 1.7574318193008802 3.5200824084398015 5 -1 1
500 50 10 -0.358962 7.023356981862767 9.50466338007867 3.3710466361371454 -1 0 1
1648 165 6 0.404798 7.127728458599328 2.487064863118218 3.0640379106700797 5 -1 1
133 14 7 -0.358962 11.18893948442723 3.5674404113826257 6.825831198516915 0 0 -1
498 50 6 0.404798 6.4735778200211 9.387032236188064 4.399137162176215 -1 0 1
605 61 8 -0.358962 4.321343743059386 3.7336266557909688 4.767002640793274 4 -2 -1
1589 159 9 -0.358962 15.973303160674988 8.715558064556133 1.1460157780680555 2 0 4
132 14 3 0.404798 11.676632700288486 2.5578515422371093 7.03136413002267 0 0 -1
493 50 7 -0.358962 8.790132771143949 10.021893365520569 7.24043377380056 -1 0 1
106 11 2 -0.091672 14.746365728843058 1.5085487936496944 2.1495589524393255 0 1 0
742 75 3 0.404798 12.139409144476796 7.250325994673823 3.4546625651635576 4 -2 -1
134 14 4 0.404798 11.35868406152009 0.22273579312022576 6.979209165108516 0 0 -1
863 87 7 -0.358962 0.846890328745615 10.292931767828861 4.08575030345882 -1 1 0
337 34 5 0.404798 15.146178540628876 10.387218077163716 7.379617237282398 1 1 1
747 75 5 0.404798 9.952251224649379 10.058101074612741 2.4833923703360763 4 -2 -1
604 61 4 0.404798 4.855898787468015 3.2904761625981016 5.660122642905694 4 -2 -1
745 75 8 -0.358962 13.388075175941562 9.63606913509614 1.3594889640478955 4 -2 -1
1924 193 4 0.404798 10.53499267087918 5.018517770863641 0.9872660203100939 -2 -1 0
746 75 2 -0.091672 10.445119673888467 8.878938736420737 3.0957174220196118 4 -2 -1
602 61 3 0.404798 6.861571149359293 3.162006799735034 7.016223542763093 4 -2 -1
382 39 3 0.404798 15.051333225424214 7.668722199242234 4.994370472958356 -3 0 1
1587 159 5 0.404798 15.99114112086344 7.629068347758569 0.7427838167264916 2 0 4
1588 159 6 0.404798 15.07626564975504 5.3277501674340115 0.7624769453692655 2 0 4
1929 193 9 -0.358962 7.2406621721728275 3.917428909574464 0.7009115273849378 -2 -1 0
1927 193 5 0.404798 8.201786376081264 3.727636536029479 0.12261497987661185 -2 -1 0
1504 151 4 0.404798 0.8927740704778696 1.7292842745594743 5.117251961408898 2 1 1
17 2 5 0.404798 11.188410681128211 3.9586356205334643 10.516039460086418 -2 1 -2
733 74 7 -0.358962 3.9115187914923917 5.7092661091541865 15.057168434022374 4 0 0
627 63 5 0.404798 2.3904055100759454 5.7883721013769325 10.273049510180346 1 1 -1
1529 153 9 -0.358962 1.6737198637555863 6.105243254451445 13.557857687802995 0 -1 2
140 14 10 -0.358962 15.128202808526577 2.8426509821142445 8.21172850917058 0 0 -1
579 58 9 -0.358962 1.3844349425701803 2.4338897597626974 13.663220545156294 -1 -1 0
630 63 10 -0.358962 0.018308038503785797 8.184219381322567 11.264983624082701 1 1 -1
223 23 7 -0.358962 1.8517714588170178 2.3495591208129216 10.227887776704812 4 2 2
1768 177 6 0.404798 11.876034276039592 4.250141979505571 14.175993920848187 -2 1 1
1781 179 1 -0.091672 3.141180497871823 9.665317472070779 15.090016237957665 0 0 3
560 56 10 -0.358962 5.940563025248907 5.937875422460874 9.879432337934599 3 2 0
1843 185 7 -0.358962 8.252917613697313 9.773058005758042 10.785474324213528 2 0 0
331 34 1 -0.091672 13.305887154245893 9.54387365528972 8.5200366215958 1 1 1
1575 158 8 -0.358962 8.242482455486849 8.938359215343755 15.085319410870875 0 0 2
158 16 6 0.404798 8.102286354969976 0.7720222509141151 8.821598511625654 3 1 0
1887 189 5 0.404798 14.683517420028515 6.954895635193032 12.282341053628244 -1 -1 1
556 56 2 -0.091672 8.470469712976053 6.315237017556997 9.385492702923345 3 2 0
736 74 2 -0.091672 7.458190719029761 5.829200677108966 14.915360821967454 4 0 0
333 34 7 -0.358962 12.46251184666952 8.288022662377582 10.655141591953662 1 1 1
1289 129 9 -0.358962 5.597788752868172 2.8679731622776727 13.81349289178719 -3 1 1
18 2 6 0.404798 11.732655654914337 1.6284847218414003 10.876663084078935 -2 1 -2
15 2 8 -0.358962 8.00645154865529 4.508492560144625 12.291435660523652 -2 1 -2
559 56 9 -0.358962 9.903501577645471 6.607220686986964 11.50195905100636 3 2 0
737 74 5 0.404798 8.77408986053501 6.215380436558133 14.565322534820696 4 0 0
1770 177 10 -0.358962 10.783906555317474 3.987088306323533 13.836022717051405 -2 1 1
732 74 3 0.404798 5.0286782541768735 6.065048153488406 14.748003874912794 4 0 0
222 23 3 0.404798 2.2213131184761754 1.2823957683806761 10.451942840291105 4 2 2
332 34 3 0.404798 12.785339761698275 8.929499833490308 9.705825618527237 1 1 1
738 74 6 0.404798 7.388557517893429 4.640390252055276 15.630277521426933 4 0 0
739 74 9 -0.358962 9.831842776978819 6.488303384882497 14.389075735132113 4 0 0
1764 177 4 0.404798 15.602082278683813 4.404816929052929 14.700811582340027 -2 1 1
336 34 2 -0.091672 14.57810998058227 9.884449671221528 8.570472099597389 1 1 1
626 63 2 -0.091672 1.7532232346274896 6.986901581200679 9.852914282070648 1 1 -1
1761 177 1 -0.091672 14.325547993750485 3.8451894226785996 14.42013627339254 -2 1 1
1889 189 9 -0.358962 14.30207378544111 6.20299552622613 11.507533174259526 -1 -1 1
1766 177 2 -0.091672 13.243944896557219 4.590776863219663 14.498482464786113 -2 1 1
1790 179 10 -0.358962 3.5599888412656173 7.593614745053741 12.262630677624893 0 0 3
1224 123 4 0.404798 15.720490590817473 2.0553305575845564 11.106853485520418 3 0 -1
19 2 9 -0.358962 11.501953998449485 4.99743322447466 10.099396431050467 -2 1 -2
622 63 3 0.404798 1.6488811924838889 8.816342381138027 8.254140806712618 1 1 -1
1527 153 5 0.404798 0.8329522220673978 6.522886769325269 14.262669216008808 0 -1 2
1763 177 7 -0.358962 14.49338087905172 1.3520447164327678 13.671055465736274 -2 1 1
1767 177 5 0.404798 13.412076143490541 5.932034163616165 14.909735956548433 -2 1 1
629 63 9 -0.358962 2.7271929641265644 4.779313939196118 10.62782844742386 1 1 -1
1886 189 2 -0.091672 15.178114913443018 7.938741543124327 13.154011826008409 -1 -1 1
495 50 8 -0.358962 4.8480268858241775 9.70408547298704 8.887364785373153 -1 0 1
1884 189 4 0.404798 12.957883128900606 8.949946119528233 13.636389678187335 -1 -1 1
1287 129 5 0.404798 5.6024567328181485 2.3545768567599943 14.848601587572084 -3 1 1
610 61 10 -0.358962 5.215067376286261 1.8495726799484289 10.178978206234424 4 -2 -1
734 74 4 0.404798 6.584658287658918 7.501424448980897 13.562781818936445 4 0 0
621 63 1 -0.091672 2.144484782912398 7.549663325910994 8.676784612243894 1 1 -1
11 2 1 -0.091672 9.761723848052567 2.6294736150606424 11.749727372307646 -2 1 -2
14 2 4 0.404798 8.802832015550653 3.708851948892497 12.019821455410787 -2 1 -2
608 61 6 0.404798 5.130064933148969 1.9016952883070761 9.057726925728172 4 -2 -1
16 2 2 -0.091672 10.910303421795728 2.747780194782824 11.067449215788397 -2 1 -2
1762 177 3 0.404798 14.374260323241419 2.484299578687896 14.002918225594232 -2 1 1
1400 140 10 -0.358962 10.707463714521648 1.4305888062464411 15.474626759886302 -1 0 -2
577 58 5 0.404798 1.0312409521646957 2.1713849581521303 14.730801157178277 -1 -1 0
735 74 8 -0.358962 6.673243490365025 8.304602161931191 12.698441203673436 4 0 0
1240 124 10 -0.358962 0.5657055943595981 4.123057119279385 11.982933737917266 0 1 2
160 16 10 -0.358962 8.924607276851868 1.5011609977044502 8.537569383321676 3 1 0
731 74 1 -0.091672 6.391946117768383 6.4517442899357125 14.483409444305586 4 0 0
20 2 10 -0.358962 12.364048499706769 0.6670881684444563 10.765946467853169 -2 1 -2
1885 189 8 -0.358962 11.837652218842909 8.791753969633469 13.747430190870999 -1 -1 1
13 2 7 -0.358962 9.290338636904902 0.3555115936215118 12.856774330811522 -2 1 -2
494 50 4 0.404798 5.534833453550274 9.43899215320713 8.052455262454217 -1 0 1
1787 179 5 0.404798 1.8228363603911453 10.485471035206603 13.24352572076202 0 0 3
558 56 6 0.404798 7.093585775813805 6.162544499470375 9.691303601314326 3 2 0
12 2 3 0.404798 9.493164644902768 1.3397525506602599 12.313313830723235 -2 1 -2
1769 177 9 -0.358962 13.586696794404313 6.999173658747444 15.309731180005548 -2 1 1
1788 179 6 0.404798 3.190796502478895 8.439140389885305 12.973840796366398 0 0 3
1881 189 1 -0.091672 14.39700077625846 8.899388671202676 13.70604748426089 -1 -1 1
1786 179 2 -0.091672 2.7455152268606042 9.50078607842197 13.804111554230857 0 0 3
557 56 5 0.404798 9.248424490312368 6.53302418696634 10.567617292892812 3 2 0
1225 123 8 -0.358962 14.941573380476616 2.884467897292053 11.142920845528508 3 0 -1
628 63 6 0.404798 0.8115250834401369 7.60694663316972 10.674888061402385 1 1 -1
1782 179 3 0.404798 4.01476167783927 8.695051264353529 15.752587557872726 0 0 3
1882 189 3 0.404798 14.88049631670673 9.930935435266127 14.55548346766211 -1 -1 1
1574 158 4 0.404798 8.163071852398089 10.022568464822127 15.53555996392965 0 0 2
338 34 6 0.404798 15.508216152883746 9.783012648201076 9.654388241396132 1 1 1
551 56 1 -0.091672 8.840133373907427 6.504325462681719 8.135802507548043 3 2 0
1333 134 7 -0.358962 12.69345779860542 7.027835687307626 21.62766921873373 0 0 1
1395 140 8 -0.358962 9.444340664946523 4.671561724323248 20.361993898060668 -1 0 -2
960 96 10 -0.358962 6.079542851647645 2.8068345246972615 20.7542704374326 -1 -1 -2
951 96 1 -0.091672 3.270871792952327 2.8433419437751484 22.83354634416762 -1 -1 -2
580 58 10 -0.358962 2.2758710208862722 0.658114392419638 17.43668770112231 -1 -1 0
954 96 4 0.404798 1.901808527681661 2.5971736150646483 23.26097933742153 -1 -1 -2
1393 140 7 -0.358962 9.216092990162442 0.6633852604201141 19.151656607828492 -1 0 -2
1777 178 5 0.404798 13.305216853629345 0.11389163867627977 17.512255570492826 1 5 0
956 96 2 -0.091672 3.5737809147042627 2.9144394119108643 21.486438742369334 -1 -1 -2
1399 140 9 -0.358962 11.229944355160708 5.583352512886798 16.6557539279905 -1 0 -2
213 22 7 -0.358962 7.868203474872887 7.1281253119248795 21.714544318580987 3 0 -1
269 27 9 -0.358962 13.918870765999273 9.749134735286974 23.948453463212395 -4 -2 -1
220 22 10 -0.358962 11.070938953358336 9.824949091893979 21.717350071341347 3 0 -1
1723 173 7 -0.358962 15.703705701117995 3.390436554451869 18.540962779317635 3 -2 2
958 96 6 0.404798 4.956371643333561 2.8973455920867623 21.056932002256335 -1 -1 -2
1783 179 7 -0.358962 4.736023105049784 7.937794242860874 16.269252821224708 0 0 3
1297 130 5 0.404798 5.348136193993452 6.1922725249685335 19.69309258294245 1 0 -2
1778 178 6 0.404798 12.572226556009491 0.7592491701992988 19.72962053000577 1 5 0
1312 132 3 0.404798 6.860063921377823 1.7382701643400298 23.301756928351175 2 1 -2
1726 173 2 -0.091672 14.020736962124484 6.381192109497923 18.119894439300204 3 -2 2
1729 173 9 -0.358962 13.724952926022409 8.889524106618625 17.95781619490958 3 -2 2
1299 130 9 -0.358962 6.413067560260362 5.807692307050874 19.469740656094917 1 0 -2
216 22 2 -0.091672 10.121318378499742 8.783077106607 19.532782043902664 3 0 -1
1728 173 6 0.404798 13.025541988361473 5.645824438909898 18.821565634844053 3 -2 2
1722 173 3 0.404798 15.373962234918542 4.447671577758545 18.193114456873076 3 -2 2
214 22 4 0.404798 8.529592986984111 7.4622928854181225 18.328349050026418 3 0 -1
1524 153 4 0.404798 0.9363024984790598 5.391267182552942 16.84850761971951 0 -1 2
1332 134 3 0.404798 13.29706723185495 6.045063854089144 21.981570383888968 0 0 1
1392 140 3 0.404798 9.601526351419325 1.710591219029648 18.836195596085307 -1 0 -2
1398 140 6 0.404798 10.539682554877393 2.251465985455188 16.256919084345306 -1 0 -2
1339 134 9 -0.358962 14.421301171826592 1.3565991008286502 22.75344071065163 0 0 1
959 96 9 -0.358962 2.1768723037137345 2.594759916292942 19.35850610971106 -1 -1 -2
1292 130 3 0.404798 2.1757462005834385 7.050173879476406 21.03233457751266 1 0 -2
1295 130 8 -0.358962 4.360191098157594 6.115438186637495 23.4491541216765 1 0 -2
814 82 4 0.404798 5.644018273799092 9.942036591299953 19.565726038821047 -1 0 -1
1291 130 1 -0.091672 3.455383846881225 6.5374206294135035 21.090288108113143 1 0 -2
1300 130 10 -0.358962 2.685230483816255 7.112242135669454 17.75253697367696 1 0 -2
1525 153 8 -0.358962 1.6400451903302584 4.450846130282481 16.940723171121142 0 -1 2
211 22 1 -0.091672 9.093284492917109 7.926833818417285 19.55497733293192 3 0 -1
1396 140 2 -0.091672 10.363608263633843 3.2592902970655 17.23774446734906 -1 0 -2
1293 130 7 -0.358962 1.1384857465001854 7.582513148386464 20.96347622222916 1 0 -2
1394 140 4 0.404798 9.71508671364812 3.948903908861721 19.476080164081715 -1 0 -2
1334 134 4 0.404798 15.46340580031637 4.779513211677654 22.142091678961364 0 0 1
1313 132 7 -0.358962 7.408018395828911 2.7555915006028755 23.26740124450883 2 1 -2
578 58 6 0.404798 1.5255331704847197 1.3622286055657349 16.869682028644156 -1 -1 0
957 96 5 0.404798 2.7466913329878087 2.756914041956772 20.338908533746228 -1 -1 -2
1391 140 1 -0.091672 9.85603734386083 3.0229147689404674 18.43811308201632 -1 0 -2
1298 130 6 0.404798 3.272430830144535 6.921382905589046 18.756462758254706 1 0 -2
1286 129 2 -0.091672 5.577164181110188 1.7185461734859298 16.146731402722978 -3 1 1
1337 134 5 0.404798 13.96350206251292 2.434429292906423 22.599204478881795 0 0 1
1721 173 1 -0.091672 15.143445077791474 5.784708497927279 17.844036320946962 3 -2 2
1780 178 10 -0.358962 12.364777429449392 1.6573851864851032 20.422699567494014 1 5 0
219 22 9 -0.358962 11.034677055615122 9.629873938782048 17.359579929694267 3 0 -1
1397 140 5 0.404798 10.844886167521004 4.557542380987161 16.900994951170684 -1 0 -2
1294 130 4 0.404798 3.969933379985874 6.247105033662225 22.388261381250544 1 0 -2
218 22 6 0.404798 10.648136220365604 9.351086303011758 20.707554495424347 3 0 -1
1727 173 5 0.404798 13.922125983275349 7.785857147927191 17.899328441190615 3 -2 2
952 96 3 0.404798 4.264246729578534 3.1852122651388153 23.83778358636354 -1 -1 -2
1296 130 2 -0.091672 4.044660046047089 6.606825443143885 19.90661273234366 1 0 -2
1340 134 10 -0.358962 10.861101857447018 3.636229117092676 22.80028824025628 0 0 1
217 22 5 0.404798 10.665729140633614 9.149726860174978 18.31830977528938 3 0 -1
215 22 8 -0.358962 8.070226291606344 7.180232818039585 17.33037447798006 3 0 -1
212 22 3 0.404798 8.52477634030274 7.407419806797607 20.775491220344133 3 0 -1
1375 138 8 -0.358962 14.93405718097903 7.677679418957561 20.49622739082902 -3 -3 0
1336 134 2 -0.091672 13.392097996972966 3.6896997430645815 22.49803785742639 0 0 1
1730 173 10 -0.358962 12.281633469661118 5.032867918001969 19.379001378613673 3 -2 2
1338 134 6 0.404798 11.995927434200496 3.66229615807593 22.594731262275776 0 0 1
740 74 10 -0.358962 7.259663782330262 3.677459056145443 16.255563829273417 4 0 0
1331 134 1 -0.091672 14.064969768032165 4.8260751765574 22.311316045016788 0 0 1
1290 129 10 -0.358962 4.9425374712462355 3.1172945717160854 18.28817214759751 -3 1 1
1374 138 4 0.404798 15.52461635855886 8.50959475882615 19.98367977386844 -3 -3 0
1288 129 6 0.404798 5.227129002226415 2.4883067189874537 17.331612762643758 -3 1 1
819 82 9 -0.358962 5.163185085873843 8.821524800845761 22.85007824920518 -1 0 -1
815 82 8 -0.358962 4.994050492826529 9.23924352944968 18.92281284346877 -1 0 -1
1311 132 1 -0.091672 6.164848123286222 0.5418740580743852 23.42539837126311 2 1 -2
1314 132 4 0.404798 4.8290871903886465 0.5400172581969434 23.91869476182267 2 1 -2
1281 129 1 -0.091672 6.038819206391083 0.5136289738349458 16.32516889921318 -3 1 1
1521 153 1 -0.091672 0.036895763609627194 6.417233964910938 16.53481442404083 0 -1 2
817 82 5 0.404798 5.767958007707306 9.727055431024512 22.409852266595454 -1 0 -1
1779 178 9 -0.358962 13.456133412907333 0.4249602924319912 16.3954969215528 1 5 0
955 96 8 -0.358962 0.869689045764654 2.3705431481262615 23.655651686676308 -1 -1 -2
689 69 9 -0.358962 14.91688700771743 6.872103188209937 23.962101953963202 1 -5 -1
1470 147 10 -0.358962 15.342678875004255 0.08974198612834088 20.218152593490665 -2 0 2
576 58 2 -0.091672 0.5491556361523624 1.9607387216509942 16.06436018791329 -1 -1 0
1961 197 1 -0.091672 2.3148968181906353 4.42139249340652 27.887390895614434 1 2 -6
690 69 10 -0.358962 12.680669782048424 3.7574513992989647 25.89677119424486 1 -5 -1
1922 193 3 0.404798 11.76254015189496 3.7971804887032308 31.206516660387656 -2 -1 -1
193 20 7 -0.358962 14.656085531265031 1.2605359644664924 28.90129371602763 -3 4 1
993 100 7 -0.358962 8.51256360720804 7.889178321532299 24.14163915403654 -2 -1 2
1966 197 2 -0.091672 2.004292587145246 4.952796780575095 29.06444323914065 1 2 -6
994 100 4 0.404798 10.782833083981378 8.947270228820408 26.66476713379381 -2 -1 2
245 25 8 -0.358962 9.088714458500414 2.567598906368535 25.385949199436222 0 0 -1
1967 197 5 0.404798 1.2872599587308227 4.289145205034754 30.11915496736407 1 2 -6
1923 193 7 -0.358962 12.759351309341486 3.4665861831373936 30.677166539534102 -2 -1 -1
1969 197 9 -0.358962 0.738854028147313 3.5500405056485396 30.83726329587147 1 2 -6
96 10 2 -0.091672 9.774873587307571 5.320083251935698 26.489279049622958 -2 0 -2
51 6 1 -0.091672 12.09860327004666 9.45013101040287 30.84382740030756 -3 0 1
56 6 2 -0.091672 11.747825482622082 8.242654471101279 31.28381363271459 -3 0 1
95 10 8 -0.358962 6.898879160089298 4.982723306684433 28.56238891433056 -2 0 -2
1315 132 8 -0.358962 3.8008700117522674 0.5185174415877903 24.242546648987183 2 1 -2
1617 162 5 0.404798 1.2532319770024405 5.972148580752919 25.28340502565836 1 1 -1
197 20 5 0.404798 12.182793076126595 0.18893951507325107 24.959698098292602 -3 4 1
683 69 7 -0.358962 15.186914822562994 3.994260161126324 29.136583750873662 1 -5 -1
198 20 6 0.404798 11.754078246913267 1.5075395712866888 26.958935246329137 -3 4 1
60 6 10 -0.358962 13.078363009952737 6.307747385672668 30.265878999548153 -3 0 1
670 67 10 -0.358962 15.11070937634798 9.627317513290997 26.424640655098116 -2 2 -3
191 20 1 -0.091672 13.856731344083007 0.15135151241646042 26.72114616882609 -3 4 1
686 69 2 -0.091672 14.717202516028065 5.41374464893552 25.98953140283618 1 -5 -1
1615 162 8 -0.358962 1.856695732588427 9.29277390518544 24.269930394445563 1 1 -1
97 10 5 0.404798 10.315511443070895 5.623572527794668 27.791090487057836 -2 0 -2
687 69 5 0.404798 14.893785936199073 6.152327414855673 24.81689812507881 1 -5 -1
244 25 4 0.404798 8.440812691745032 1.840174720229208 25.958095356205828 0 0 -1
1025 103 8 -0.358962 2.2333516790546084 9.826816033787708 27.861833150348605 3 -5 -1
1614 162 4 0.404798 1.302122268007892 8.798906848128803 25.152546623394276 1 1 -1
1965 197 8 -0.358962 1.519339323657662 2.100710560567705 27.240370645725267 1 2 -6
1616 162 2 -0.091672 0.6089430628506958 6.817204942750906 26.274239647104828 1 1 -1
725 73 8 -0.358962 4.0579358279262125 2.04062493692918 29.096800317202685 3 -3 -1
1964 197 4 0.404798 1.8172573608926106 3.1339482291916574 27.58172510216302 1 2 -6
1970 197 10 -0.358962 2.9846306054572866 7.279189334009303 29.681744886023058 1 2 -6
98 10 6 0.404798 10.48101520801803 5.8763601293037535 25.378831229111427 -2 0 -2
1619 162 9 -0.358962 1.7166807937424235 5.1990162589101985 24.536764239459718 1 1 -1
724 73 4 0.404798 3.5293502664317624 1.593566800384782 29.987832732098386 3 -3 -1
99 10 9 -0.358962 10.735851737017583 5.86438360624203 28.815025170203228 -2 0 -2
999 100 9 -0.358962 9.565698666119557 9.535206241549407 29.831359687571975 -2 -1 2
1963 197 7 -0.358962 3.804868219669779 5.492565119033099 26.092082851002314 1 2 -6
995 100 8 -0.358962 11.861242218423452 9.261145337629637 26.85742152606869 -2 -1 2
1968 197 6 0.404798 2.5188252398306568 6.246775003530619 29.406567526190088 1 2 -6
953 96 7 -0.358962 4.962269966123409 3.362793641921124 24.74606320579648 -1 -1 -2
688 69 6 0.404798 13.583705876035047 4.479235003173009 25.964617437969693 1 -5 -1
52 6 3 0.404798 13.261981048067314 9.65882387613548 30.041407914656077 -3 0 1
1962 197 3 0.404798 3.0916237399815936 5.078045209626641 26.897441085105893 1 2 -6
242 25 3 0.404798 6.235892230383629 1.0843047243653094 26.619508291027714 0 0 -1
1926 193 2 -0.091672 9.427259237717742 3.6668659803160333 31.426343221454 -2 -1 -1
682 69 3 0.404798 15.445604978871597 4.57307612020319 28.153113210314746 1 -5 -1
527 53 5 0.404798 5.12949092355442 5.72724220505704 31.877248322634006 3 -2 0
992 100 3 0.404798 8.900096080274517 8.16497105320465 25.189375366146923 -2 -1 2
529 53 9 -0.358962 5.191455865000171 5.61090133605761 30.694699313429293 3 -2 0
681 69 1 -0.091672 15.580577240416199 5.413284423118768 27.02369032314166 1 -5 -1
1000 100 10 -0.358962 6.238942012827197 8.028013018368929 27.969397113564344 -2 -1 2
241 25 1 -0.091672 7.592947913215761 0.9081777835318384 26.645738928269253 0 0 -1
1611 162 1 -0.091672 0.5746432608570862 8.191633265445702 26.171036590718536 1 1 -1
94 10 4 0.404798 7.655957073507807 5.034502383443752 27.641617748119433 -2 0 -2
192 20 3 0.404798 14.267068844006571 0.7372406410075495 27.94870792723703 -3 4 1
100 10 10 -0.358962 11.167549782679293 6.239020698482964 24.510437341010526 -2 0 -2
991 100 1 -0.091672 9.387004101371089 8.676946208990095 26.487183381414056 -2 -1 2
92 10 3 0.404798 7.67060401683964 5.133543429245013 25.242974484570393 -2 0 -2
721 73 1 -0.091672 2.846006434667868 0.8636342807274329 31.06988689308264 3 -3 -1
1930 193 10 -0.358962 9.164345501886896 1.727029572556547 29.66783827494759 -2 -1 -1
200 20 10 -0.358962 10.927293102582697 2.146814805221643 27.430866469500188 -3 4 1
243 25 7 -0.358962 5.11121061718213 1.2837153314994878 26.63383974033485 0 0 -1
1023 103 7 -0.358962 6.288181762929592 10.537066655743963 29.60593199001642 3 -5 -1
1928 193 6 0.404798 9.304553744478339 2.60735695505807 30.421192656426687 -2 -1 -1
196 20 2 -0.091672 12.669964984451369 0.6870002711312468 26.182885337958645 -3 4 1
91 10 1 -0.091672 8.44826263703569 5.104875181071475 26.42595721056468 -2 0 -2
58 6 6 0.404798 12.482691696751868 7.125142096789093 30.736134224114014 -3 0 1
997 100 5 0.404798 9.219790483511279 9.265473485863462 28.77438801228876 -2 -1 2
1024 103 4 0.404798 3.3194830645036073 10.298513391245155 27.737967491648444 3 -5 -1
998 100 6 0.404798 7.319549146832929 8.453776443040354 27.719753954612106 -2 -1 2
996 100 2 -0.091672 8.634140383561025 8.941637311703605 27.569604462239255 -2 -1 2
53 6 7 -0.358962 14.19897276859207 9.957775245720507 29.35835455961242 -3 0 1
293 30 7 -0.358962 12.140314342150408 0.030438166250938713 30.323092123482418 3 2 1
1921 193 1 -0.091672 10.549925660844675 4.193554596262838 31.85436170297694 -2 -1 -1
57 6 5 0.404798 10.516657947980606 8.101100892729685 31.99419858624099 -3 0 1
93 10 7 -0.358962 6.904636396250928 5.154042528175792 24.343432663106597 -2 0 -2
826 83 2 -0.091672 1.1132355998457095 13.406777412059396 1.1494444391629883 0 0 4
518 52 6 0.404798 9.117833091284892 16.181251463365808 0.6330448290813391 0 -1 2
883 89 7 -0.358962 6.4411090523936885 14.288951151792576 3.0195514340735987 -1 0 0
1473 148 7 -0.358962 4.7560933706854875 11.709148715565446 7.029409737281716 1 1 0
1472 148 3 0.404798 3.901103080498222 12.099823554364866 7.756558390258882 1 1 0
1989 199 9 -0.358962 13.994075844086556 19.132862096577647 4.663239350554012 2 0 1
474 48 4 0.404798 5.9135342724081355 17.269038024101448 4.953478778571583 0 2 -1
1698 170 6 0.404798 11.541942302556281 12.429936648212703 7.169145359537489 1 1 1
475 48 8 -0.358962 6.652575695597695 16.424811607546843 4.611837562226997 0 2 -1
882 89 3 0.404798 5.753155148462357 13.346102750402466 3.0663128202508703 -1 0 0
830 83 10 -0.358962 3.4019318041963116 14.313529606671421 2.0408632875731088 0 0 4
884 89 4 0.404798 3.8538993957543624 12.289386625323193 4.260751393752908 -1 0 0
1696 170 2 -0.091672 12.299719043666899 13.545685025403863 6.7668307037398305 1 1 1
480 48 10 -0.358962 3.6665544697802965 21.127732741441882 6.6218070015159185 0 2 -1
886 89 2 -0.091672 4.957732659421646 11.228279568420621 2.438582030404914 -1 0 0
1474 148 4 0.404798 1.6732264370629537 13.203464495322901 7.913441569276472 1 1 0
1457 146 5 0.404798 7.484433575698576 13.569212769291925 6.765587422461083 2 -1 1
790 79 10 -0.358962 15.041032313130826 15.621880834616551 0.7304548976887544 2 2 0
1121 113 1 -0.091672 1.2070763721853457 16.932147175930464 1.1914511320213326 0 1 0
1693 170 7 -0.358962 9.550982054319183 14.50587823606531 4.689654356296309 1 1 1
1695 170 8 -0.358962 13.086804973238136 16.71066237344294 5.401675040481941 1 1 1
1987 199 5 0.404798 14.610759473393728 19.633805723185866 5.54982066244055 2 0 1
1475 148 8 -0.358962 0.8607749773804465 13.644840356656106 7.2652610265105375 1 1 0