LAMMPS data file
# Generated by Playmol on 25-Nov-2024 at 13:52:14

10 atom types
9 bond types
10 angle types
12 dihedral types

60 atoms
54 bonds
60 angles
72 dihedrals

-4.86800003 4.86800003 xlo xhi
-4.86800003 4.86800003 ylo yhi
-4.86800003 4.86800003 zlo zhi
0.00000000 0.00000000 0.00000000 xy xz yz

Masses

1 12.01 # c1
2 12.01 # c1b
3 12.01 # c2
4 12.01 # c3
5 12.01 # c2b
6 12.01 # c3b
7 14.01 # n1
8 14.01 # n2
9 14.01 # n1b
10 14.01 # n2b

# Elements: C? C? C? C? C? C? N? N? N? N?

Pair Coeffs # lj/cut/coul/long

1 0.0760 3.55000 # c1
2 0.0760 3.55000 # c1b
3 0.0660 3.30000 # c2
4 0.0660 3.30000 # c3
5 0.0660 3.30000 # c2b
6 0.0660 3.30000 # c3b
7 0.1700 3.20000 # n1
8 0.1700 3.20000 # n2
9 0.1700 3.20000 # n1b
10 0.1700 3.20000 # n2b

Bond Coeffs # harmonic

1 400.0 1.426 # c1 c2
2 400.0 1.426 # c1 c3
3 400.0 1.426 # c1b c2b
4 400.0 1.426 # c1b c3b
5 549.0 1.340 # c1 c1b
6 650.0 1.160 # c2 n1
7 650.0 1.160 # c3 n2
8 650.0 1.160 # c2b n1b
9 650.0 1.160 # c3b n2b

Angle Coeffs # harmonic

1 70.0 116.8 # c2 c1 c3
2 70.0 116.8 # c2b c1b c3b
3 70.0 121.6 # c2 c1 c1b
4 70.0 121.6 # c3 c1 c1b
5 70.0 121.6 # c1 c1b c2b
6 70.0 121.6 # c1 c1b c3b
7 70.0 178.9 # c1 c2 n1
8 70.0 178.9 # c1 c3 n2
9 70.0 178.9 # c1b c2b n1b
10 70.0 178.9 # c1b c3b n2b

Dihedral Coeffs # opls

1 0.0 0.0 0.0 0.0 # c3 c1 c2 n1
2 0.0 0.0 0.0 0.0 # c1b c1 c2 n1
3 0.0 0.0 0.0 0.0 # c2 c1 c3 n2
4 0.0 0.0 0.0 0.0 # c1b c1 c3 n2
5 0.0 0.0 0.0 0.0 # c1 c1b c2b n1b
6 0.0 0.0 0.0 0.0 # c3b c1b c2b n1b
7 0.0 0.0 0.0 0.0 # c1 c1b c3b n2b
8 0.0 0.0 0.0 0.0 # c2b c1b c3b n2b
9 0.0 14.0 0.0 0.0 # c2 c1 c1b c2b
10 0.0 14.0 0.0 0.0 # c3 c1 c1b c2b
11 0.0 14.0 0.0 0.0 # c2 c1 c1b c3b
12 0.0 14.0 0.0 0.0 # c3 c1 c1b c3b

Atoms

1 1 1 -0.091672 10.4130411 4.86800003 4.86800003 # C1
2 1 3 0.404798 11.1679707 4.86800003 6.07799006 # C2
3 1 7 -0.358962 11.8089886 4.86800003 7.02695799 # N1
4 1 4 0.404798 11.1679707 4.86800003 3.65801001 # C3
5 1 8 -0.358962 11.8089886 4.86800003 2.70904207 # N2
6 1 2 -0.091672 9.05895901 4.86800003 4.86800003 # C1B
7 1 5 0.404798 8.30402946 4.86800003 3.65801001 # C2B
8 1 6 0.404798 8.30402946 4.86800003 6.07799006 # C3B
9 1 9 -0.358962 7.66301107 4.86800003 2.70904207 # N1B
10 1 10 -0.358962 7.66301107 4.86800003 7.02695799 # N2B
11 2 1 -0.091672 5.54504108 0.00000000 9.73600006 # C1
12 2 3 0.404798 6.29997110 0.00000000 10.9459896 # C2
13 2 7 -0.358962 6.94098902 0.00000000 11.8949575 # N1
14 2 4 0.404798 6.29997110 0.00000000 8.52600956 # C3
15 2 8 -0.358962 6.94098902 0.00000000 7.57704210 # N2
16 2 2 -0.091672 4.19095898 0.00000000 9.73600006 # C1B
17 2 5 0.404798 3.43602896 0.00000000 8.52600956 # C2B
18 2 6 0.404798 3.43602896 0.00000000 10.9459896 # C3B
19 2 9 -0.358962 2.79501104 0.00000000 7.57704210 # N1B
20 2 10 -0.358962 2.79501104 0.00000000 11.8949575 # N2B
21 3 1 -0.091672 4.86800003 0.677040994 4.86800003 # C1
22 3 3 0.404798 6.07799006 1.43197095 4.86800003 # C2
23 3 7 -0.358962 7.02695799 2.07298899 4.86800003 # N1
24 3 4 0.404798 3.65801001 1.43197095 4.86800003 # C3
25 3 8 -0.358962 2.70904207 2.07298899 4.86800003 # N2
26 3 2 -0.091672 4.86800003 -0.677040994 4.86800003 # C1B
27 3 5 0.404798 3.65801001 -1.43197095 4.86800003 # C2B
28 3 6 0.404798 6.07799006 -1.43197095 4.86800003 # C3B
29 3 9 -0.358962 2.70904207 -2.07298899 4.86800003 # N1B
30 3 10 -0.358962 7.02695799 -2.07298899 4.86800003 # N2B
31 4 1 -0.091672 4.86800003 4.86800003 10.4130001 # C1
32 4 3 0.404798 4.86800003 6.07800007 11.1680002 # C2
33 4 7 -0.358962 4.86800003 7.02699995 11.8090000 # N1
34 4 4 0.404798 4.86800003 3.65799999 11.1680002 # C3
35 4 8 -0.358962 4.86800003 2.70900011 11.8090000 # N2
36 4 2 -0.091672 4.86800003 4.86800003 9.05900002 # C1B
37 4 5 0.404798 4.86800003 3.65799999 8.30399990 # C2B
38 4 6 0.404798 4.86800003 6.07800007 8.30399990 # C3B
39 4 9 -0.358962 4.86800003 2.70900011 7.66300011 # N1B
40 4 10 -0.358962 4.86800003 7.02699995 7.66300011 # N2B
41 5 1 -0.091672 9.73600006 5.54504108 9.73600006 # C1
42 5 3 0.404798 10.9459896 6.29997110 9.73600006 # C2
43 5 7 -0.358962 11.8949575 6.94098902 9.73600006 # N1
44 5 4 0.404798 8.52600956 6.29997110 9.73600006 # C3
45 5 8 -0.358962 7.57704210 6.94098902 9.73600006 # N2
46 5 2 -0.091672 9.73600006 4.19095898 9.73600006 # C1B
47 5 5 0.404798 8.52600956 3.43602896 9.73600006 # C2B
48 5 6 0.404798 10.9459896 3.43602896 9.73600006 # C3B
49 5 9 -0.358962 7.57704210 2.79501104 9.73600006 # N1B
50 5 10 -0.358962 11.8949575 2.79501104 9.73600006 # N2B
51 6 1 -0.091672 9.73600006 0.00000000 5.54504108 # C1
52 6 3 0.404798 9.73600006 1.20999002 6.29997110 # C2
53 6 7 -0.358962 9.73600006 2.15895796 6.94098902 # N1
54 6 4 0.404798 9.73600006 -1.20999002 6.29997110 # C3
55 6 8 -0.358962 9.73600006 -2.15895796 6.94098902 # N2
56 6 2 -0.091672 9.73600006 0.00000000 4.19095898 # C1B
57 6 5 0.404798 9.73600006 -1.20999002 3.43602896 # C2B
58 6 6 0.404798 9.73600006 1.20999002 3.43602896 # C3B
59 6 9 -0.358962 9.73600006 -2.15895796 2.79501104 # N1B
60 6 10 -0.358962 9.73600006 2.15895796 2.79501104 # N2B

Bonds

1 1 1 2 # C1 C2
2 2 1 4 # C1 C3
3 5 1 6 # C1 C1B
4 6 2 3 # C2 N1
5 7 4 5 # C3 N2
6 3 6 7 # C1B C2B
7 4 6 8 # C1B C3B
8 8 7 9 # C2B N1B
9 9 8 10 # C3B N2B
10 1 11 12 # C1 C2
11 2 11 14 # C1 C3
12 5 11 16 # C1 C1B
13 6 12 13 # C2 N1
14 7 14 15 # C3 N2
15 3 16 17 # C1B C2B
16 4 16 18 # C1B C3B
17 8 17 19 # C2B N1B
18 9 18 20 # C3B N2B
19 1 21 22 # C1 C2
20 2 21 24 # C1 C3
21 5 21 26 # C1 C1B
22 6 22 23 # C2 N1
23 7 24 25 # C3 N2
24 3 26 27 # C1B C2B
25 4 26 28 # C1B C3B
26 8 27 29 # C2B N1B
27 9 28 30 # C3B N2B
28 1 31 32 # C1 C2
29 2 31 34 # C1 C3
30 5 31 36 # C1 C1B
31 6 32 33 # C2 N1
32 7 34 35 # C3 N2
33 3 36 37 # C1B C2B
34 4 36 38 # C1B C3B
35 8 37 39 # C2B N1B
36 9 38 40 # C3B N2B
37 1 41 42 # C1 C2
38 2 41 44 # C1 C3
39 5 41 46 # C1 C1B
40 6 42 43 # C2 N1
41 7 44 45 # C3 N2
42 3 46 47 # C1B C2B
43 4 46 48 # C1B C3B
44 8 47 49 # C2B N1B
45 9 48 50 # C3B N2B
46 1 51 52 # C1 C2
47 2 51 54 # C1 C3
48 5 51 56 # C1 C1B
49 6 52 53 # C2 N1
50 7 54 55 # C3 N2
51 3 56 57 # C1B C2B
52 4 56 58 # C1B C3B
53 8 57 59 # C2B N1B
54 9 58 60 # C3B N2B

Angles

1 1 2 1 4 # C2 C1 C3
2 3 2 1 6 # C2 C1 C1B
3 4 4 1 6 # C3 C1 C1B
4 7 1 2 3 # C1 C2 N1
5 8 1 4 5 # C1 C3 N2
6 5 1 6 7 # C1 C1B C2B
7 6 1 6 8 # C1 C1B C3B
8 2 7 6 8 # C2B C1B C3B
9 9 6 7 9 # C1B C2B N1B
10 10 6 8 10 # C1B C3B N2B
11 1 12 11 14 # C2 C1 C3
12 3 12 11 16 # C2 C1 C1B
13 4 14 11 16 # C3 C1 C1B
14 7 11 12 13 # C1 C2 N1
15 8 11 14 15 # C1 C3 N2
16 5 11 16 17 # C1 C1B C2B
17 6 11 16 18 # C1 C1B C3B
18 2 17 16 18 # C2B C1B C3B
19 9 16 17 19 # C1B C2B N1B
20 10 16 18 20 # C1B C3B N2B
21 1 22 21 24 # C2 C1 C3
22 3 22 21 26 # C2 C1 C1B
23 4 24 21 26 # C3 C1 C1B
24 7 21 22 23 # C1 C2 N1
25 8 21 24 25 # C1 C3 N2
26 5 21 26 27 # C1 C1B C2B
27 6 21 26 28 # C1 C1B C3B
28 2 27 26 28 # C2B C1B C3B
29 9 26 27 29 # C1B C2B N1B
30 10 26 28 30 # C1B C3B N2B
31 1 32 31 34 # C2 C1 C3
32 3 32 31 36 # C2 C1 C1B
33 4 34 31 36 # C3 C1 C1B
34 7 31 32 33 # C1 C2 N1
35 8 31 34 35 # C1 C3 N2
36 5 31 36 37 # C1 C1B C2B
37 6 31 36 38 # C1 C1B C3B
38 2 37 36 38 # C2B C1B C3B
39 9 36 37 39 # C1B C2B N1B
40 10 36 38 40 # C1B C3B N2B
41 1 42 41 44 # C2 C1 C3
42 3 42 41 46 # C2 C1 C1B
43 4 44 41 46 # C3 C1 C1B
44 7 41 42 43 # C1 C2 N1
45 8 41 44 45 # C1 C3 N2
46 5 41 46 47 # C1 C1B C2B
47 6 41 46 48 # C1 C1B C3B
48 2 47 46 48 # C2B C1B C3B
49 9 46 47 49 # C1B C2B N1B
50 10 46 48 50 # C1B C3B N2B
51 1 52 51 54 # C2 C1 C3
52 3 52 51 56 # C2 C1 C1B
53 4 54 51 56 # C3 C1 C1B
54 7 51 52 53 # C1 C2 N1
55 8 51 54 55 # C1 C3 N2
56 5 51 56 57 # C1 C1B C2B
57 6 51 56 58 # C1 C1B C3B
58 2 57 56 58 # C2B C1B C3B
59 9 56 57 59 # C1B C2B N1B
60 10 56 58 60 # C1B C3B N2B

Dihedrals

1 1 4 1 2 3 # C3 C1 C2 N1
2 2 6 1 2 3 # C1B C1 C2 N1
3 3 2 1 4 5 # C2 C1 C3 N2
4 4 6 1 4 5 # C1B C1 C3 N2
5 9 2 1 6 7 # C2 C1 C1B C2B
6 10 4 1 6 7 # C3 C1 C1B C2B
7 11 2 1 6 8 # C2 C1 C1B C3B
8 12 4 1 6 8 # C3 C1 C1B C3B
9 5 1 6 7 9 # C1 C1B C2B N1B
10 6 8 6 7 9 # C3B C1B C2B N1B
11 7 1 6 8 10 # C1 C1B C3B N2B
12 8 7 6 8 10 # C2B C1B C3B N2B
13 1 14 11 12 13 # C3 C1 C2 N1
14 2 16 11 12 13 # C1B C1 C2 N1
15 3 12 11 14 15 # C2 C1 C3 N2
16 4 16 11 14 15 # C1B C1 C3 N2
17 9 12 11 16 17 # C2 C1 C1B C2B
18 10 14 11 16 17 # C3 C1 C1B C2B
19 11 12 11 16 18 # C2 C1 C1B C3B
20 12 14 11 16 18 # C3 C1 C1B C3B
21 5 11 16 17 19 # C1 C1B C2B N1B
22 6 18 16 17 19 # C3B C1B C2B N1B
23 7 11 16 18 20 # C1 C1B C3B N2B
24 8 17 16 18 20 # C2B C1B C3B N2B
25 1 24 21 22 23 # C3 C1 C2 N1
26 2 26 21 22 23 # C1B C1 C2 N1
27 3 22 21 24 25 # C2 C1 C3 N2
28 4 26 21 24 25 # C1B C1 C3 N2
29 9 22 21 26 27 # C2 C1 C1B C2B
30 10 24 21 26 27 # C3 C1 C1B C2B
31 11 22 21 26 28 # C2 C1 C1B C3B
32 12 24 21 26 28 # C3 C1 C1B C3B
33 5 21 26 27 29 # C1 C1B C2B N1B
34 6 28 26 27 29 # C3B C1B C2B N1B
35 7 21 26 28 30 # C1 C1B C3B N2B
36 8 27 26 28 30 # C2B C1B C3B N2B
37 1 34 31 32 33 # C3 C1 C2 N1
38 2 36 31 32 33 # C1B C1 C2 N1
39 3 32 31 34 35 # C2 C1 C3 N2
40 4 36 31 34 35 # C1B C1 C3 N2
41 9 32 31 36 37 # C2 C1 C1B C2B
42 10 34 31 36 37 # C3 C1 C1B C2B
43 11 32 31 36 38 # C2 C1 C1B C3B
44 12 34 31 36 38 # C3 C1 C1B C3B
45 5 31 36 37 39 # C1 C1B C2B N1B
46 6 38 36 37 39 # C3B C1B C2B N1B
47 7 31 36 38 40 # C1 C1B C3B N2B
48 8 37 36 38 40 # C2B C1B C3B N2B
49 1 44 41 42 43 # C3 C1 C2 N1
50 2 46 41 42 43 # C1B C1 C2 N1
51 3 42 41 44 45 # C2 C1 C3 N2
52 4 46 41 44 45 # C1B C1 C3 N2
53 9 42 41 46 47 # C2 C1 C1B C2B
54 10 44 41 46 47 # C3 C1 C1B C2B
55 11 42 41 46 48 # C2 C1 C1B C3B
56 12 44 41 46 48 # C3 C1 C1B C3B
57 5 41 46 47 49 # C1 C1B C2B N1B
58 6 48 46 47 49 # C3B C1B C2B N1B
59 7 41 46 48 50 # C1 C1B C3B N2B
60 8 47 46 48 50 # C2B C1B C3B N2B
61 1 54 51 52 53 # C3 C1 C2 N1
62 2 56 51 52 53 # C1B C1 C2 N1
63 3 52 51 54 55 # C2 C1 C3 N2
64 4 56 51 54 55 # C1B C1 C3 N2
65 9 52 51 56 57 # C2 C1 C1B C2B
66 10 54 51 56 57 # C3 C1 C1B C2B
67 11 52 51 56 58 # C2 C1 C1B C3B
68 12 54 51 56 58 # C3 C1 C1B C3B
69 5 51 56 57 59 # C1 C1B C2B N1B
70 6 58 56 57 59 # C3B C1B C2B N1B
71 7 51 56 58 60 # C1 C1B C3B N2B
72 8 57 56 58 60 # C2B C1B C3B N2B
