LAMMPS data file via write_data, version 29 Sep 2021, timestep = 5000004

1620 atoms
10 atom types
1458 bonds
9 bond types
1620 angles
10 angle types
1944 dihedrals
12 dihedral types

-5.306433021503228 24.77843314150153 xlo xhi
-5.324544142031762 24.796544262031468 ylo yhi
-5.3367642032930345 24.808764323292245 zlo zhi
0.04018738461832774 -0.4114687991459194 -0.398059735007352 xy xz yz

Masses

1 12.01
2 12.01
3 12.01
4 12.01
5 12.01
6 12.01
7 14.01
8 14.01
9 14.01
10 14.01

Pair Coeffs # lj/cut/coul/long

1 0.076 3.55
2 0.076 3.55
3 0.066 3.3
4 0.066 3.3
5 0.066 3.3
6 0.066 3.3
7 0.17 3.2
8 0.17 3.2
9 0.17 3.2
10 0.17 3.2

Bond Coeffs # harmonic

1 400 1.426
2 400 1.426
3 400 1.426
4 400 1.426
5 549 1.34
6 650 1.16
7 650 1.16
8 650 1.16
9 650 1.16

Angle Coeffs # harmonic

1 70 116.8
2 70 116.8
3 70 121.6
4 70 121.6
5 70 121.6
6 70 121.6
7 70 178.9
8 70 178.9
9 70 178.9
10 70 178.9

Dihedral Coeffs # opls

1 0 0 0 0
2 0 0 0 0
3 0 0 0 0
4 0 0 0 0
5 0 0 0 0
6 0 0 0 0
7 0 0 0 0
8 0 0 0 0
9 0 14 0 0
10 0 14 0 0
11 0 14 0 0
12 0 14 0 0

Atoms # full

1601 161 1 -0.091672 -0.46002923198407236 -4.617419930750339 -0.3869252218399897 1 1 1
1116 112 2 -0.091672 4.673417899565026 4.399144671440134 -0.8661830007657096 0 0 1
1473 148 7 -0.358962 4.567288655813867 -3.1931429154246285 1.9551474392739063 0 1 1
1563 157 7 -0.358962 1.7697601184323994 -5.007707524434785 -3.244257177513788 1 1 1
1248 125 6 0.404798 0.681204468271936 3.4026487535390695 -0.5696497735158612 1 0 1
1111 112 1 -0.091672 4.625123211561654 4.347347199815913 0.4825248566154343 0 0 1
1246 125 2 -0.091672 -0.5013975359175272 4.152287386800046 -0.5182753631318917 1 0 1
1096 110 2 -0.091672 3.974995634033873 -0.32261896541852364 -0.45173191156475134 0 0 1
1478 148 6 0.404798 4.536162945266952 -4.095413110324227 -1.5331800391227866 0 1 1
1480 148 10 -0.358962 4.552771564442905 -3.0916502087462736 -2.108118451041528 0 1 1
1251 126 1 -0.091672 -0.3800200878138146 0.0010470776660512476 -4.633293934773686 1 0 1
1472 148 3 0.404798 4.604198433848418 -4.124973613355275 1.247566511927105 0 1 1
1600 160 10 -0.358962 -5.021845896853544 -2.9209682211899444 -2.0501438026803807 1 1 1
1484 149 4 0.404798 8.754012033964283 -4.143417170540593 -0.04594101461173672 0 1 1
1485 149 8 -0.358962 7.8319893386257196 -3.491058425992701 0.19968393153903374 0 1 1
1604 161 4 0.404798 -1.611894330315711 -3.850874625611779 -0.3169668138288859 1 1 1
1605 161 8 -0.358962 -2.404099645997646 -3.069657396510424 -0.22475259844034667 1 1 1
1094 110 4 0.404798 6.089809429173023 -0.6345975379895049 -1.5963693107784565 0 0 1
1095 110 8 -0.358962 6.843786634004577 -0.6847017245674648 -2.484229626555161 0 0 1
1214 122 4 0.404798 -3.8732114939040825 -0.13236356390144471 -1.569406463313502 1 0 1
1215 122 8 -0.358962 -3.2699729310915595 -0.00807042082772439 -2.5236435802800683 1 0 1
1091 110 1 -0.091672 5.32255563310159 -0.5324273339844787 -0.37368682085721705 0 0 1
1092 110 3 0.404798 6.090181309673882 -0.5188559650408342 0.8487091976629806 0 0 1
1253 126 7 -0.358962 -0.2933903266574208 2.169668315471241 -3.308126926994183 1 0 1
1115 112 8 -0.358962 5.066798056110332 2.2582123877794267 1.9620582884144167 0 0 1
1212 122 3 0.404798 -3.965351813701852 -0.386932053370898 0.8271123813404371 1 0 1
1250 125 10 -0.358962 1.682627973174813 2.8981776701215005 -0.6161702361370223 1 0 1
1117 112 5 0.404798 4.757961677309141 3.260050617667305 -1.7080467955922267 0 0 1
1119 112 9 -0.358962 4.961803577382306 2.4120890195977007 -2.4599739691477183 0 0 1
1114 112 4 0.404798 4.835605966430022 3.113332848780629 1.2649284671778922 0 0 1
1099 110 9 -0.358962 2.80378496927729 -0.1281399662155698 -2.68416761041936 0 0 1
1127 113 5 0.404798 8.379087467052864 2.968860839825184 -0.1823324822019412 0 0 1
1129 113 9 -0.358962 7.313316944344479 2.4823639782801625 -0.2128493524490418 0 0 1
1247 125 5 0.404798 -1.6576072634983494 3.409336896580039 -0.6248399780297582 1 0 1
1249 125 9 -0.358962 -2.723630461009986 2.8998836638445904 -0.5881944603781184 1 0 1
1471 148 1 -0.091672 4.577765396027663 -5.302640094086091 0.422993384883954 0 1 1
1255 126 8 -0.358962 -0.32743963296172096 -2.2002842477879803 -3.2236933345601146 1 0 1
1211 122 1 -0.091672 -4.698247320668894 -0.31707137167981314 -0.38606614106327086 1 0 1
1097 110 5 0.404798 3.3278860427915444 -0.22483455235802158 -1.6956114789718533 0 0 1
1098 110 6 0.404798 3.2323083477855024 -0.17203355463031583 0.7775979082535747 0 0 1
1254 126 4 0.404798 -0.3356228107540947 -1.1741324817815928 -3.8029408431509584 1 0 1
1134 114 4 0.404798 9.547104745713888 -1.8323023327067869 -3.844381092923408 0 0 1
1602 161 3 0.404798 0.7360327043405284 -3.7905200660548797 -0.381129082389017 1 1 1
1603 161 7 -0.358962 1.694295902484403 -3.1097530925425803 -0.2714004029110173 1 1 1
1598 160 6 0.404798 -5.07109490293889 -3.97811699809736 -1.630556484361097 1 1 1
1252 126 3 0.404798 -0.36385569688745034 1.1901337842863273 -3.898777662509449 1 0 1
1135 114 8 -0.358962 9.294969538296897 -2.7963838212157026 -3.255252212155273 0 0 1
1562 157 3 0.404798 1.1752294873342835 -4.99282170156077 -4.230083485307807 1 1 1
1090 109 10 -0.358962 7.451610096917925 4.258094164789954 -3.3632348893425146 0 0 1
1093 110 7 -0.358962 6.553402640170449 -0.5787549047281838 1.8662325004358404 0 0 1
1592 160 3 0.404798 -5.138025239187214 -4.0950576603130315 1.1345424762597789 1 1 1
1235 124 8 -0.358962 -5.105983776487574 2.582630674139058 1.8607444177128114 1 0 1
1596 160 2 -0.091672 -5.245215254996245 -5.19737305170759 -1.0398643566359045 1 1 1
1213 122 7 -0.358962 -3.4064687174825368 -0.35933053447354335 1.847663774849618 1 0 1
1476 148 2 -0.091672 4.531618677094043 -5.31021563171387 -0.8869513415942842 0 1 1
1591 160 1 -0.091672 -5.255363963838526 -5.325372027265069 0.3141316485583969 1 1 1
1088 109 6 0.404798 8.195044210103605 4.401040825538913 -4.261463897905562 0 0 1
1100 110 10 -0.358962 2.5759120255298416 -0.06000724656805395 1.7506359565832152 0 0 1
1228 123 6 0.404798 -3.9596399536877063 -1.726790591470849 -5.177290689990291 1 0 1
1234 124 4 0.404798 -5.28930948995856 3.5726746015955233 1.3343509982548296 1 0 1
1126 113 2 -0.091672 9.599038071879374 3.7024751866729955 -0.13486350879942144 0 0 1
1593 160 7 -0.358962 -4.977292985567664 -3.1587807908570373 1.821035248736834 1 1 1
1230 123 10 -0.358962 -2.93453308609321 -2.2879286354735604 -5.101429957976929 1 0 1
30 3 10 -0.358962 6.963512492426334 -2.2200487247090206 4.281307378493487 0 0 0
481 49 1 -0.091672 0.14009090544277616 -5.3656980480905325 4.794137824691457 1 1 0
486 49 2 -0.091672 -1.204534299883663 -5.365847101600186 4.781320758245339 1 1 0
172 18 3 0.404798 -0.7570994635290405 1.027881865113704 5.822206398514375 1 0 0
150 15 10 -0.358962 -3.11520428763028 -2.252601208389782 4.466876761036918 1 0 0
170 17 10 -0.358962 1.4804897757139046 2.6147318759840044 9.658180600842456 1 0 0
485 49 8 -0.358962 1.376506633693188 -5.314710462198951 2.5838910327001408 1 1 0
177 18 5 0.404798 -0.36527440789128224 -1.4465337932710747 3.1236004040770258 1 0 0
8 1 6 0.404798 8.135869146280525 4.557152928034903 5.848828602214656 0 0 0
25 3 8 -0.358962 2.2362530493785715 1.3949890215145828 4.732143556073396 0 0 0
398 40 6 0.404798 5.239735264596343 -4.440286189782453 8.252708415150384 0 1 0
400 40 10 -0.358962 5.414095520630268 -3.549147051024888 7.536963421962051 0 1 0
19 2 9 -0.358962 2.6686003596423764 -0.6208111035525892 7.409959863341669 0 0 0
17 2 5 0.404798 3.4236255493439556 -0.6284138065441984 8.358902767905647 0 0 0
56 6 2 -0.091672 9.539372449824732 -0.4259706899665763 4.037752985501724 0 0 0
178 18 6 0.404798 -0.5932575114001313 0.9810344555413609 2.978090749416374 1 0 0
171 18 1 -0.091672 -0.6039770231888313 -0.15137565864608085 5.086712277950971 1 0 0
176 18 2 -0.091672 -0.5673650911645165 -0.20346497613538017 3.754048769576956 1 0 0
21 3 1 -0.091672 4.612949803513165 0.3118559866907379 4.808440647659948 0 0 0
22 3 3 0.404798 5.7735866843035755 1.1567212798720021 4.624446595242796 0 0 0
26 3 2 -0.091672 4.758256352532993 -0.9982247330116032 4.722198715248437 0 0 0
28 3 6 0.404798 5.953568634098709 -1.6707750373777903 4.4987497811126165 0 0 0
173 18 7 -0.358962 -0.8637421353837109 1.964994691758461 6.5292716623992355 1 0 0
142 15 3 0.404798 -4.1712607928245315 1.081589185795678 4.775154429312758 1 0 0
174 18 4 0.404798 -0.4362580709756313 -1.3339078164198426 5.877758027140899 1 0 0
148 15 6 0.404798 -4.134795701782714 -1.7787869582299518 4.623990444786585 1 0 0
14 2 4 0.404798 6.272277036465196 -0.4132794088448932 8.283885181351414 0 0 0
15 2 8 -0.358962 6.651935349019188 -0.19686889352162554 7.2035697264550205 0 0 0
134 14 4 0.404798 -3.8249860978795582 -0.4272155387555868 8.409537968970783 1 0 0
135 14 8 -0.358962 -3.172191962868823 -0.4658685260318501 7.4655244050606235 1 0 0
175 18 8 -0.358962 -0.4457626942110834 -2.3181089062751017 6.512829776831477 1 0 0
27 3 5 0.404798 3.64171668531176 -1.7909328675488663 4.671917660181117 0 0 0
23 3 7 -0.358962 6.786535268261312 1.7564066504486828 4.601233386817347 0 0 0
143 15 7 -0.358962 -3.224767093594244 1.7445128872351092 4.703536267645754 1 0 0
37 4 5 0.404798 4.461878742943845 3.197704322920684 8.081710762436591 0 0 0
39 4 9 -0.358962 4.3245178684344765 2.2002889396904806 7.5179688068492645 0 0 0
366 37 2 -0.091672 9.05540957037149 -5.352345349389889 4.477966700375516 0 1 0
24 3 4 0.404798 3.306015213162683 0.9192619067455112 4.768816450914697 0 0 0
29 3 9 -0.358962 2.751156116460578 -2.559231403429991 4.6579811558468265 0 0 0
179 18 9 -0.358962 -0.23093860507478836 -2.4786217613278456 2.5775563965318433 1 0 0
370 37 10 -0.358962 7.689824266541532 -5.158360522025679 6.6047248081844625 0 1 0
60 6 10 -0.358962 9.47473158670986 1.8268410675898181 2.86126212693366 0 0 0
53 6 7 -0.358962 9.29650563340245 1.726696895202522 6.7779018248503125 0 0 0
180 18 10 -0.358962 -0.7222486531130216 1.9708642882473708 2.379774627035843 1 0 0
483 49 7 -0.358962 1.5225337145149616 -5.2432521092685365 6.913341665676404 1 1 0
520 52 10 -0.358962 -5.291600699592459 -3.4437715593985425 7.733139715197867 1 1 0
482 49 3 0.404798 0.9057530176761018 -5.357309008272046 5.96229399955317 1 1 0
368 37 6 0.404798 8.261848621313755 -5.263670311397669 5.628367470019212 0 1 0
52 6 3 0.404798 9.39901652611274 0.7553139021244604 6.147485566826303 0 0 0
58 6 6 0.404798 9.511789889621406 0.7864864104792348 3.3300597589037757 0 0 0
518 52 6 0.404798 -5.325992810672332 -4.410068545109528 8.405382938509499 1 1 0
10 1 10 -0.358962 7.48622373358304 4.4576567506888365 6.864301619232725 0 0 0
55 6 8 -0.358962 9.547771781860751 -2.6619855370638246 6.684948211939945 0 0 0
487 49 5 0.404798 -1.9391989825768725 -5.21794936809159 3.6149299741680334 1 1 0
146 15 2 -0.091672 -5.322784173153887 -1.0932643580102337 4.749025326423558 1 0 0
489 49 9 -0.358962 -2.4019259500165813 -5.038026056599836 2.604157514262707 1 1 0
484 49 4 0.404798 0.843573857179168 -5.259848426054301 3.5949396966213953 1 1 0
36 4 2 -0.091672 4.591895727653111 4.3856797964669605 8.888805914863461 0 0 0
51 6 1 -0.091672 9.526819094276664 -0.46963713030340615 5.349758533821284 0 0 0
129 13 9 -0.358962 -2.3546096867206785 4.53290309822673 2.4070079280132637 1 0 0
141 15 1 -0.091672 -5.328701597255108 0.25064528961343474 4.845226506790572 1 0 0
49 5 9 -0.358962 7.1440049704456525 2.983227690337586 9.596627411491784 0 0 0
159 16 9 -0.358962 -5.461501480356813 2.2343026253277887 7.65439151967659 1 0 0
131 14 1 -0.091672 -4.574363806181358 -0.5278812270538263 9.635701532106815 1 0 0
16 2 2 -0.091672 4.265600201808434 -0.8389553869543811 9.492605057516622 0 0 0
11 2 1 -0.091672 5.628278497563927 -0.6543507051172621 9.49438340790301 0 0 0
521 53 1 -0.091672 -0.19913027529127086 -4.966709806226104 9.662737024483402 1 1 0
156 16 2 -0.091672 -5.447226128589341 4.461857551229667 9.018328844467833 1 0 0
570 57 10 -0.358962 6.728989648163412 -2.697211898899692 14.534512308758453 0 0 0
1024 103 4 0.404798 1.379177172361582 -5.391805570409612 13.656570235344931 1 1 0
523 53 7 -0.358962 1.9574597026012028 -3.661472792969733 9.841391905156323 1 1 0
524 53 4 0.404798 -1.3986227525962525 -4.2897646755569045 9.88568186990262 1 1 0
690 69 10 -0.358962 -3.185240982313863 -2.811687819453064 14.533885310863488 1 0 0
667 67 5 0.404798 -2.074315622341241 4.220940772381423 13.505857191672868 1 0 0
719 72 9 -0.358962 -0.3026578520635334 -2.9806025902788438 12.750190836938996 1 0 0
549 55 9 -0.358962 7.806236741851084 4.465811260828556 12.89150883670217 0 0 0
711 72 1 -0.091672 -0.6753032821240417 -0.73772490466455 15.466020744403098 1 0 0
392 40 3 0.404798 5.070791547561805 -4.237716592764781 11.041544417314698 0 1 0
393 40 7 -0.358962 4.998986701386229 -3.2450278048407744 11.639246979777147 0 1 0
154 16 4 0.404798 -5.270660918696486 3.22909499034842 11.08040371416415 1 0 0
714 72 4 0.404798 -0.6215929055766451 -1.9007313217552948 16.290348315161026 1 0 0
565 57 8 -0.358962 2.497698598025713 1.5420625680240416 14.59380715816667 0 0 0
718 72 6 0.404798 -0.7177215648731529 0.45500135885325677 13.278328141504675 1 0 0
717 72 5 0.404798 -0.519546389633711 -1.9880412801307608 13.380127741364321 1 0 0
716 72 2 -0.091672 -0.6932969420046307 -0.8054994355030961 14.11029239230819 1 0 0
561 57 1 -0.091672 4.68671516708557 0.09104269890106786 14.48639180799614 0 0 0
562 57 3 0.404798 5.8903714633432 0.87372552481062 14.626666311493151 0 0 0
566 57 2 -0.091672 4.589837590752601 -1.2454946572782817 14.410201212945465 0 0 0
568 57 6 0.404798 5.725946857137607 -2.059642416074664 14.449126835809265 0 0 0
720 72 10 -0.358962 -0.7663201425790243 1.406699019017171 12.575246430679572 1 0 0
682 69 3 0.404798 -4.2717402969038565 0.8330438973569272 14.48164508897572 1 0 0
564 57 4 0.404798 3.478528399842029 0.8942367238266695 14.652221721374831 0 0 0
688 69 6 0.404798 -4.09935370249124 -2.0754267056936277 14.613193657996918 1 0 0
12 2 3 0.404798 6.326174118135198 -0.3298514041994063 10.666008205515388 0 0 0
13 2 7 -0.358962 6.897990916287297 -0.1957503357062447 11.695997598613774 0 0 0
132 14 3 0.404798 -3.8208017478239227 -0.424462096000328 10.847396553395809 1 0 0
133 14 7 -0.358962 -3.199517769335746 -0.44656802449821775 11.809643833395578 1 0 0
563 57 7 -0.358962 6.922083615647024 1.3902770815760932 14.824633673616495 0 0 0
683 69 7 -0.358962 -3.299309367915166 1.4026789335923529 14.240308091138415 1 0 0
34 4 4 0.404798 4.426528813792745 3.0727361401121813 10.89746052879597 0 0 0
35 4 8 -0.358962 4.415899341398821 2.0542183273894477 11.464462189728517 0 0 0
20 2 10 -0.358962 2.623110425336004 -0.5813268123773526 11.43814311600888 0 0 0
712 72 3 0.404798 -0.727187930120645 0.4468171697870025 16.253370804198056 1 0 0
569 57 9 -0.358962 2.311269662234305 -2.4442508918158348 14.763440503460737 0 0 0
18 2 6 0.404798 3.4452568935378225 -0.6603876132715034 10.642092991685534 0 0 0
567 57 5 0.404798 3.3588690602243654 -1.9027659169758986 14.570355349576674 0 0 0
547 55 5 0.404798 8.395409587364016 4.418039147121494 13.827437042913518 0 0 0
525 53 8 -0.358962 -2.470456403402077 -3.8397463724760006 9.996607256123323 1 1 0
513 52 7 -0.358962 -5.206381363866174 -3.3536869433798686 11.805835983939312 1 1 0
1025 103 8 -0.358962 2.0730799031640648 -5.195441199269791 12.749646122768025 1 1 0
715 72 8 -0.358962 -0.5858141577732421 -2.8098857877670578 16.98125689332467 1 0 0
686 69 2 -0.091672 -5.298691076208636 -1.3375803567800295 14.706343598993369 1 0 0
512 52 3 0.404798 -5.294027972990698 -4.381109711707794 11.289756842368442 1 1 0
713 72 7 -0.358962 -0.7982098144044264 1.4697648030972017 16.74985416689703 1 0 0
47 5 5 0.404798 8.18870344248478 3.44337830290252 9.836287836888769 0 0 0
31 4 1 -0.091672 4.619099995100723 4.328268642360962 10.238955241132503 0 0 0
546 55 2 -0.091672 9.032970591311486 4.321735175956509 15.101923083586735 0 0 0
522 53 3 0.404798 0.9546361301038391 -4.2017917074302735 9.753825592544253 1 1 0
155 16 8 -0.358962 -5.311228849599049 2.196567887498211 11.615511034415126 1 0 0
663 67 7 -0.358962 1.3884897949478507 4.043400006546554 16.871262625044345 1 0 0
169 17 9 -0.358962 -2.8008184402753376 2.5972895830258196 9.763938844784096 1 0 0
681 69 1 -0.091672 -5.427737107061157 0.008595752178858829 14.76243380745865 1 0 0
670 67 10 -0.358962 -2.954800575733963 3.9144165678025353 16.72428696983264 1 0 0
662 67 3 0.404798 0.7375470542714329 4.046684981725816 15.903589136105635 1 0 0
666 67 2 -0.091672 -1.3623924321673486 4.080047711344271 14.686096710917267 1 0 0
661 67 1 -0.091672 -0.03746241098600514 4.181693974079584 14.722817300883962 1 0 0
668 67 6 0.404798 -2.2219428647489066 4.045244700497667 15.846553431015282 1 0 0
46 5 2 -0.091672 9.456903629513372 3.9957829667873153 10.023941237974858 0 0 0
664 67 4 0.404798 0.6762222237124165 4.435803618242826 13.527046478117681 1 0 0
151 16 1 -0.091672 -5.39140877755432 4.453401007701229 10.344731941046154 1 0 0
548 55 6 0.404798 8.121887205351578 4.343360108361801 16.19222312769 0 0 0
669 67 9 -0.358962 -2.644088062150788 4.290985530669956 12.41347859537383 1 0 0
550 55 10 -0.358962 7.242546914773062 4.412805051685437 16.936571324343568 0 0 0
391 40 1 -0.091672 5.073214798473742 -5.5320271122684055 10.415460798164508 0 1 0
168 17 6 0.404798 0.5265637427819447 3.2687308926656553 9.770458653042535 1 0 0
166 17 2 -0.091672 -0.6903679833234097 4.000126074048516 9.756684174596968 1 0 0
405 41 8 -0.358962 7.999352875640565 -3.2247035662762817 9.98747402879697 0 1 0
404 41 4 0.404798 8.82490536059835 -4.048125839939534 9.952525210533336 0 1 0
167 17 5 0.404798 -1.8721981879965879 3.2612603888084806 9.738505542502221 1 0 0
1259 126 9 -0.358962 -0.6797984595109279 -2.755295870800956 22.90367863141506 1 0 0
675 68 8 -0.358962 -3.525510346657038 -0.7348034615236819 17.428007927060527 1 0 0
941 95 1 -0.091672 9.383295952319852 -5.044587105128866 19.873815529534717 0 1 0
557 56 5 0.404798 2.9887369270043402 -0.6659440913170609 18.63468136273081 0 0 0
938 94 6 0.404798 4.148345958890514 -4.479308854428809 18.515944975781835 0 1 0
1061 107 1 -0.091672 -0.5312376067972614 -4.793775299401054 19.847254820744908 1 1 0
1051 106 1 -0.091672 -5.411276557833431 -5.519893515269498 20.579310146954327 1 1 0
932 94 3 0.404798 4.282743901554308 -4.755450387272196 21.33784721067955 0 1 0
933 94 7 -0.358962 4.030628141657534 -3.751654066438379 21.97845461576167 0 1 0
944 95 4 0.404798 8.25511127545379 -4.296847004413282 20.073677182746337 0 1 0
945 95 8 -0.358962 7.253995100946586 -3.742118344380538 20.160153500620268 0 1 0
1064 107 4 0.404798 -1.7839375006373588 -4.05670703064095 19.767812651962316 1 1 0
1065 107 8 -0.358962 -2.7802065666823945 -3.532427982985296 19.691794261979055 1 1 0
708 71 6 0.404798 0.4309430524325676 2.97145636729679 19.613791996337767 1 0 0
1257 126 5 0.404798 -0.6384286227585363 -1.733696045246136 23.475020212026166 1 0 0
556 56 2 -0.091672 3.886568984040937 -0.7207383914422578 19.717422664587808 0 0 0
710 71 10 -0.358962 1.3963272026643112 2.3736613926997023 19.69503078895258 1 0 0
1058 106 6 0.404798 -5.321484717101633 -4.518297728598858 18.40429256309971 1 1 0
706 71 2 -0.091672 -0.8279447988677573 3.6896430913265323 19.699066697259525 1 0 0
1256 126 2 -0.091672 -0.7428097090770998 -0.47889067216298975 24.1611908267109 1 0 0
560 56 10 -0.358962 2.84531914524593 -0.684254496180753 22.05918986207616 0 0 0
1260 126 10 -0.358962 -0.4787760389175567 1.4511120251890857 22.48232472469484 1 0 0
559 56 9 -0.358962 2.3816538281935187 -0.5125091538258593 17.641643766113454 0 0 0
558 56 6 0.404798 3.29261103442635 -0.6411995650478635 20.994357978689408 0 0 0
1063 107 7 -0.358962 1.3572255948365493 -3.176793859265616 19.667816361098318 1 1 0
554 56 4 0.404798 5.913236469564692 -0.8011990503379238 18.320707934641874 0 0 0
1060 106 10 -0.358962 -5.364338487660308 -3.6627172850683194 17.64621676659509 1 1 0
674 68 4 0.404798 -4.061932899054053 -0.6233617792782705 18.41950242288189 1 0 0
1062 107 3 0.404798 0.5434102075083664 -3.9648498271893717 19.66504930335644 1 1 0
551 56 1 -0.091672 5.219714974601947 -0.7719235368342452 19.570653077991636 0 0 0
552 56 3 0.404798 6.052336983551935 -0.7184313139147307 20.72159482583892 0 0 0
553 56 7 -0.358962 6.67982115691428 -0.681199711359189 21.696336728218093 0 0 0
1107 111 5 0.404798 3.241364101182176 -2.0629342348642554 24.755082635069613 0 0 0
672 68 3 0.404798 -3.883788319700126 -0.392433964932757 20.81031338834029 1 0 0
673 68 7 -0.358962 -3.263732044170885 -0.35628569184900477 21.77700109690889 1 0 0
579 58 9 -0.358962 4.628647269991129 2.1476526015329642 17.848801505577974 0 0 0
1258 126 6 0.404798 -0.6183919553174603 0.6137699310572313 23.319295233637156 1 0 0
577 58 5 0.404798 4.514305443823844 3.1240936603323743 18.454364247987414 0 0 0
1106 111 2 -0.091672 4.424879162208406 -1.3174781710610115 24.723094312876434 0 0 0
574 58 4 0.404798 4.3236195857894595 3.202091901183443 21.292410049823033 0 0 0
575 58 8 -0.358962 4.42111782099747 2.091911177828451 21.710662033140835 0 0 0
587 59 5 0.404798 8.194064863096363 2.8955871335164676 20.099477960327178 0 0 0
589 59 9 -0.358962 7.2546960116443495 2.224437653174765 20.172943860024837 0 0 0
707 71 5 0.404798 -1.941294703968211 2.8330856299649723 19.725051686378087 1 0 0
709 71 9 -0.358962 -2.846096455114288 2.1180681938021877 19.611633367436063 1 0 0
671 68 1 -0.091672 -4.679070326422722 -0.557338953384681 19.659344797675338 1 0 0
1087 109 5 0.404798 8.02014860352004 4.174391050149331 23.54964858918406 0 0 0
1223 123 7 -0.358962 -3.6143573552366735 1.5774131824960256 24.558221661400843 1 0 0
1222 123 3 0.404798 -4.470231276819391 0.8347585447260009 24.677631639978138 1 0 0
1052 106 3 0.404798 -5.313833942527191 -4.354830753770847 21.30610474497884 1 1 0
940 94 10 -0.358962 3.9194567164344294 -3.5532879491240634 17.940417263722473 0 1 0
1221 123 1 -0.091672 -5.617692292308801 -0.05957177746654796 24.680118207809713 1 0 0
1053 106 7 -0.358962 -5.250282300282176 -3.3064408400947856 21.787956026989654 1 1 0
1105 111 8 -0.358962 2.096745065037354 1.3401836072717632 24.59706655536747 0 0 0
1103 111 7 -0.358962 6.575489111604687 1.3500909547338469 24.646560982159436 0 0 0
1565 157 8 -0.358962 1.5839694545883587 -5.628098615754955 22.642220327193733 1 1 0
1564 157 4 0.404798 0.8747089772748853 -5.467221880067151 23.52988631976497 1 1 0
1108 111 6 0.404798 5.617928904009131 -2.0151197484582064 24.596312319572796 0 0 0
1104 111 4 0.404798 3.1135704939746756 0.7250603809013116 24.592900490412283 0 0 0
1109 111 9 -0.358962 2.2769108718851365 -2.6486785299654345 24.80816822292651 0 0 0
1207 121 5 0.404798 -2.4321761941070363 4.046954894372703 23.660959216080933 1 0 0
1204 121 4 0.404798 0.4755581587542426 4.063038896213863 23.577732778703407 1 0 0
1089 109 9 -0.358962 7.401839233107459 4.090317361798713 22.560945883124546 0 0 0
1209 121 9 -0.358962 -3.0673861182364943 3.9386899330267036 22.685069856334223 1 0 0
1205 121 8 -0.358962 0.9962492305024814 3.9313954526316213 22.597852488870814 1 0 0
1102 111 3 0.404798 5.5799170209159685 0.8007209642113966 24.573547216421105 0 0 0
1567 157 5 0.404798 -2.101417417921898 -5.612473104332752 23.54891093218228 1 1 0
1569 157 9 -0.358962 -2.896957652192068 -5.622590462729179 22.70871235372097 1 1 0
1110 111 10 -0.358962 6.530461032298406 -2.59791478307501 24.332712641317904 0 0 0
1226 123 2 -0.091672 -5.603651390201541 -1.4481090524291664 24.786485973945155 1 0 0
1101 111 1 -0.091672 4.36073336468933 0.014839510278175927 24.605362075160322 0 0 0
1561 157 1 -0.091672 0.050874285010216014 -5.415077605029211 24.711514646859293 1 1 0
1566 157 2 -0.091672 -1.2956714436022414 -5.620392642066085 24.70467811492417 1 1 0
1201 121 1 -0.091672 -0.262235318016847 4.309672365442819 24.80094308514238 1 0 0
1056 106 2 -0.091672 -5.436398138119379 -5.649046057622398 19.262582914163957 1 1 0
1086 109 2 -0.091672 8.669395586299327 4.193022658840031 24.77162838444496 0 0 0
1206 121 2 -0.091672 -1.61399171681213 4.279827752967365 24.7778411280496 1 0 0
555 56 8 -0.358962 6.352321279088282 -0.7187200966403352 17.274682033540167 0 0 0
1403 141 7 -0.358962 -3.127492000703936 11.585368146608701 -5.310974027463185 1 0 1
1241 125 1 -0.091672 -0.5534851574992339 5.537721659996441 -0.46745148852971585 1 0 1
1208 121 6 0.404798 -1.9999568011281716 4.916277970748749 -4.181035660836738 1 0 1
1306 131 2 -0.091672 9.349630732060191 13.65836484339665 -0.4391399464055583 0 0 1
1278 128 6 0.404798 3.122604452308992 9.521412192960096 0.6529749225083616 0 0 1
1391 140 1 -0.091672 -5.1741828330220265 9.626839501639157 -0.31159702418700963 1 0 1
1118 112 6 0.404798 4.747680093524375 5.620232841756831 -1.6457223246327533 0 0 1
1120 112 10 -0.358962 4.822249465119758 6.594137120005565 -2.2809676827319176 0 0 1
1433 144 7 -0.358962 -0.02783445983012855 11.789344829191966 -3.7572793313394124 1 0 1
1112 112 3 0.404798 4.743283138666649 5.544910754059956 1.2418546151673864 0 0 1
1280 128 10 -0.358962 2.388908819416615 9.477707059783837 1.579532928102961 0 0 1
1124 113 4 0.404798 8.404771341157591 5.766931648988772 -0.22976432364556665 0 0 1
1125 113 8 -0.358962 7.414921481643561 6.325508919023736 -0.22262729981755847 0 0 1
1244 125 4 0.404798 -1.718331832538954 6.342658499831084 -0.37244040467751116 1 0 1
1245 125 8 -0.358962 -2.5572722984847442 7.134866289341399 -0.3233785526984878 1 0 1
1274 128 4 0.404798 6.150396863460441 9.662442959366565 -1.5391425265928471 0 0 1
1275 128 8 -0.358962 6.789584367439262 9.634095754419391 -2.520056678531839 0 0 1
1394 140 4 0.404798 -4.544941804639769 9.770456145798832 -1.55517302720367 1 0 1
1395 140 8 -0.358962 -3.9082716049239266 9.711584171924086 -2.629804128205865 1 0 1
1271 128 1 -0.091672 5.279529766399452 9.667121410305127 -0.37544522474593567 0 0 1
1272 128 3 0.404798 5.89444044413138 9.765212645510669 0.8844811922824363 0 0 1
1279 128 9 -0.358962 2.7582066942941 9.24945119748565 -2.7588476922255385 0 0 1
1431 144 1 -0.091672 -0.3641844375680531 9.596602618206665 -4.924954306937278 1 0 1
1392 140 3 0.404798 -4.297387918554011 9.691371956299465 0.8306416514209012 1 0 1
1277 128 5 0.404798 3.2677375086631995 9.280453519938371 -1.759238884541145 0 0 1
1297 130 5 0.404798 4.538199088170235 13.617475403696327 -1.938330106225648 0 0 1
1299 130 9 -0.358962 4.547594779159683 12.694956454152042 -2.6823710105363676 0 0 1
1294 130 4 0.404798 4.411682686302757 13.318874384866934 0.9138328591478286 0 0 1
1273 128 7 -0.358962 6.300312789665799 9.757114550079391 1.9955447383589684 0 0 1
1307 131 5 0.404798 8.1524823507984 12.975027698135099 -0.49329642334414814 0 0 1
1309 131 9 -0.358962 7.095205211079804 12.46124137271124 -0.45404745259570234 0 0 1
1427 143 5 0.404798 -1.7843156631102337 12.981070263650523 -0.6669860044701981 1 0 1
1429 143 9 -0.358962 -2.79178445789291 12.418460075081995 -0.7147821626080724 1 0 1
1382 139 3 0.404798 0.852708661267843 14.693624005875495 -4.384822154498901 1 0 1
1202 121 3 0.404798 0.896612983877609 4.972737290797628 -4.2143135726200045 1 0 1
1315 132 8 -0.358962 9.12087371997159 7.495606694129207 -2.967563846480331 0 0 1
1430 143 10 -0.358962 1.6326319701285772 12.49221512149742 -0.5124799741073547 1 0 1
1435 144 8 -0.358962 -0.4655164382551365 7.617575224705763 -3.2698495090943895 1 0 1
1428 143 6 0.404798 0.6257616567719102 13.083940422932688 -0.5591131976918966 1 0 1
1276 128 2 -0.091672 3.9751687011752455 9.474588848513099 -0.5417494808787557 0 0 1
1242 125 3 0.404798 0.6798346387390791 6.189181744728724 -0.2832067218975425 1 0 1
1243 125 7 -0.358962 1.7827780030134042 6.5449865467562915 -0.17768964582400226 1 0 1
1426 143 2 -0.091672 -0.5687064508384364 13.81121328064669 -0.6892524289404536 1 0 1
1432 144 3 0.404798 -0.19525223939596328 10.813211944514016 -4.342700855608252 1 0 1
1434 144 4 0.404798 -0.4222547993472849 8.45891983650244 -4.069136509287751 1 0 1
1295 130 8 -0.358962 4.381551673809893 12.259945868979429 1.3799988494855135 0 0 1
1312 132 3 0.404798 9.39235684154457 10.849179463133801 -3.764133113111879 0 0 1
1313 132 7 -0.358962 9.364053917989223 11.886855768403406 -3.222739551537914 0 0 1
1203 121 7 -0.358962 1.4222191728896838 5.183146070505579 -3.2085968204133164 1 0 1
1393 140 7 -0.358962 -3.5749901937225053 9.707249609004865 1.7324541456042866 1 0 1
1390 139 10 -0.358962 -2.4103860096188163 14.705041404856118 -3.354292842078908 1 0 1
1113 112 7 -0.358962 4.907751172264789 6.5225546648971555 1.8881832733740298 0 0 1
1311 132 1 -0.091672 9.349116512870294 9.58944466362929 -4.4211994785678135 0 0 1
1291 130 1 -0.091672 4.491760535177039 14.571400970709805 0.2833481518025991 0 0 1
1121 113 1 -0.091672 9.638106246219662 5.058385281176927 -0.0993400955729804 0 0 1
1210 121 10 -0.358962 -2.5821639875803 4.968223781672431 -3.252295597676749 1 0 1
1314 132 4 0.404798 9.175668266144195 8.442473653893487 -3.596527184279434 0 0 1
1296 130 2 -0.091672 4.601557390158438 14.67270599527456 -1.032345944879359 0 0 1
1402 141 3 0.404798 -4.148047361866006 11.10164464140363 -5.327816414568982 1 0 1
232 24 3 0.404798 9.509623143372563 10.698182601592393 6.2135659801834855 0 0 0
360 36 10 -0.358962 -0.30703579632153555 11.52210903257654 2.5361579451210563 1 0 0
236 24 2 -0.091672 9.26621736990182 9.443984832932486 4.1074120540993775 0 0 0
210 21 10 -0.358962 6.4248851864143735 7.478570140652114 4.7746140229938305 0 0 0
311 32 1 -0.091672 -4.949976437891489 9.464959157368394 9.479825329621278 1 0 0
347 35 5 0.404798 -1.6352835205186067 13.154748783735243 9.720453735536116 1 0 0
162 17 3 0.404798 0.6367388836450065 6.0263928934645445 9.50191445825112 1 0 0
330 33 10 -0.358962 -3.6698568820981348 7.677140129320148 3.940652464200028 1 0 0
38 4 6 0.404798 4.756730290654415 5.620551876591732 8.164727002933658 0 0 0
40 4 10 -0.358962 4.732335744838389 6.645445762914299 7.599179414102798 0 0 0
358 36 6 0.404798 -0.470856979398941 10.603842920408344 3.241103340669518 1 0 0
164 17 4 0.404798 -1.8294963937964088 6.097238184000597 9.495820107336101 1 0 0
204 21 4 0.404798 3.1092552449696464 11.02173430789302 4.4953649524695685 0 0 0