LAMMPS data file via write_data, version 29 Sep 2021, timestep = 5000000

1620 atoms
10 atom types
1458 bonds
9 bond types
1620 angles
10 angle types
1944 dihedrals
12 dihedral types

0 31.303 xlo xhi
0 31.303 ylo yhi
0 31.303 zlo zhi

Masses

1 12.01
2 12.01
3 12.01
4 12.01
5 12.01
6 12.01
7 14.01
8 14.01
9 14.01
10 14.01

Bond Coeffs # harmonic

1 400 1.426
2 400 1.426
3 400 1.426
4 400 1.426
5 549 1.34
6 650 1.16
7 650 1.16
8 650 1.16
9 650 1.16

Angle Coeffs # harmonic

1 70 116.8
2 70 116.8
3 70 121.6
4 70 121.6
5 70 121.6
6 70 121.6
7 70 178.9
8 70 178.9
9 70 178.9
10 70 178.9

Dihedral Coeffs # opls

1 0 0 0 0
2 0 0 0 0
3 0 0 0 0
4 0 0 0 0
5 0 0 0 0
6 0 0 0 0
7 0 0 0 0
8 0 0 0 0
9 0 14 0 0
10 0 14 0 0
11 0 14 0 0
12 0 14 0 0

Atoms # full

1391 140 1 -0.091672 2.6761550862572254 4.457421693456518 3.561087040142544 1 1 -1
1394 140 4 0.404798 1.8757694516758285 4.829619074240168 4.70057971711604 1 1 -1
1141 115 1 -0.091672 4.838439496479998 9.122407233988856 6.263495692957277 1 1 1
461 47 1 -0.091672 1.9109467844891286 9.355652771483669 2.649829539864503 1 -1 2
1553 156 7 -0.358962 7.4317059402227565 1.958016443796486 0.6779588069276111 1 0 0
462 47 3 0.404798 1.3969423016976714 10.142903476998727 3.7068925375632658 1 -1 2
1156 116 2 -0.091672 12.909204599612316 0.5573516359165702 5.565344439416023 0 1 1
1398 140 6 0.404798 3.9512922901727108 2.9000121234758165 2.2313612932491558 1 1 -1
464 47 4 0.404798 3.2945834554924915 9.555550090682836 2.288502783782573 1 -1 2
466 47 2 -0.091672 1.1670084052874585 8.50604177369517 1.9284996051274426 1 -1 2
1396 140 2 -0.091672 2.967619975727765 3.18888158947038 3.242568232123722 1 1 -1
1400 140 10 -0.358962 4.67791855220269 2.669928314852418 1.3569039046806435 1 1 -1
1142 115 3 0.404798 4.656769747270906 7.752733311257115 6.0529971349273035 1 1 1
1397 140 5 0.404798 2.333794443196975 2.1503359106517954 4.0682203771411025 1 1 -1
187 19 5 0.404798 7.128777079788661 5.2638091348103035 7.720743092231602 1 1 0
177 18 5 0.404798 14.869171005092714 5.9824037590581876 0.8685757486078873 -3 -1 0
1159 116 9 -0.358962 11.000084209420818 2.280850810756462 5.205156105308725 0 1 1
1399 140 9 -0.358962 1.8762325845748118 1.360777808354658 4.784345474166244 1 1 -1
469 47 9 -0.358962 2.349007591216263 7.310535699817848 0.0020099792865819746 1 -1 2
1146 115 2 -0.091672 4.471410798198559 9.658791016540821 7.435324341992448 1 1 1
1392 140 3 0.404798 3.4182495472019285 5.548067273937732 3.086966402432493 1 1 -1
1144 115 4 0.404798 5.248911704436861 10.008374074203374 5.204801255426053 1 1 1
1395 140 8 -0.358962 1.2465175438100513 5.14105232172754 5.623970982686801 1 1 -1
1393 140 7 -0.358962 3.997299841468869 6.494994172641122 2.7498756022322453 1 1 -1
465 47 8 -0.358962 4.37674442336156 9.753192415110096 1.9204468333151492 1 -1 2
1230 123 10 -0.358962 8.282774086776978 8.323579999170125 4.885261547150447 0 0 1
176 18 2 -0.091672 15.460462247492758 7.053662794303698 1.6442710488890904 -3 -1 0
1143 115 7 -0.358962 4.512979708760292 6.639060199526867 5.762039015057965 1 1 1
15 2 8 -0.358962 6.453586116894047 5.606051981609663 1.4432246389734975 0 0 0
14 2 4 0.404798 7.020444590188337 5.474904617871853 0.439694937084451 0 0 0
459 46 9 -0.358962 2.14177180134999 3.0283286472953255 7.460547238694174 1 0 1
1083 109 7 -0.358962 8.431609175102665 8.5690363165364 0.5125752476939088 1 0 -1
1161 117 1 -0.091672 14.612817905200854 5.729837969015173 5.601702900879714 -1 -1 0
1224 123 4 0.404798 10.29486269198165 4.670291596441132 2.579820807757058 0 0 1
1552 156 3 0.404798 8.020650838988331 1.3155195810809697 1.443427089690059 1 0 0
1554 156 4 0.404798 10.257988428491927 0.6288097849405143 2.130040604236579 1 0 0
1163 117 7 -0.358962 14.709877592027475 3.7264933164833947 3.954117806367378 -1 -1 0
171 18 1 -0.091672 15.146878249429939 8.290016380022182 1.233546212750958 -3 -1 0
1556 156 2 -0.091672 8.374735316534059 0.012407548547392074 3.4728215894044854 1 0 0
174 18 4 0.404798 14.227453044666742 8.513261866099006 0.15745621766425444 -3 -1 0
1430 143 10 -0.358962 0.8907438864424029 2.367448230193687 0.5148992828325881 0 -2 1
1223 123 7 -0.358962 11.409997797810872 7.974785671481223 2.7089710366909916 0 0 1
1221 123 1 -0.091672 9.878786605118938 5.900773460872155 3.1759414148939236 0 0 1
467 47 5 0.404798 1.7908707884494928 7.861228711806186 0.8568903955344027 1 -1 2
1422 143 3 0.404798 3.258853948746098 0.046159403279897954 0.902328285281625 0 -2 1
1226 123 2 -0.091672 8.813736412369952 5.989344436378088 3.984287443887613 0 0 1
190 19 10 -0.358962 5.317464589129971 2.654861804070277 6.699979572351355 1 1 0
1225 123 8 -0.358962 10.791509357162772 3.7179255878314397 2.1417099954651153 0 0 1
1162 117 3 0.404798 14.68766242134485 4.627856689895931 4.683946936590842 -1 -1 0
1555 156 8 -0.358962 11.399053083605855 0.7129317864037593 1.9390040379650226 1 0 0
1168 117 6 0.404798 15.208554920681728 4.3761193076504945 7.480416518530177 -1 -1 0
1165 117 8 -0.358962 13.597340705130764 7.996928491640978 4.794929082543638 -1 -1 0
1551 156 1 -0.091672 8.837184913778463 0.6996051970250018 2.419493641280567 1 0 0
1151 116 1 -0.091672 13.526175143845077 0.5830628405770574 6.754582136101763 0 1 1
1228 123 6 0.404798 8.352535567318446 7.238818659110349 4.480260054154833 0 0 1
1157 116 5 0.404798 11.835131911567961 1.4882863239053483 5.3470606031811885 0 1 1
349 35 9 -0.358962 10.949061078870741 8.986829010141843 6.706000286157278 0 0 0
1164 117 4 0.404798 14.08173734834699 6.990194878161678 5.107094647341595 -1 -1 0
1222 123 3 0.404798 10.769223223097157 7.038706854335159 2.9513847343127617 0 0 1
1229 123 9 -0.358962 7.198031579285198 4.007487612321778 4.326552976940737 0 0 1
347 35 5 0.404798 11.479881875969983 9.892533757771485 6.212514512185621 0 0 0
1166 117 2 -0.091672 14.827372428747477 5.5528086820765035 6.912514480308361 -1 -1 0
1227 123 5 0.404798 7.89530369154597 4.916535551291717 4.144774365176757 0 0 1
186 19 2 -0.091672 7.28251530025119 3.8993623862488644 7.767623466711908 1 1 0
179 18 9 -0.358962 14.391261288236343 5.1657600540058475 0.19753521287927472 -3 -1 0
188 19 6 0.404798 6.177349985670879 3.1824767641057496 7.272534862949623 1 1 0
1082 109 3 0.404798 8.607347755183083 9.692136502089523 0.2815731467807597 1 0 -1
189 19 9 -0.358962 6.864446028162083 6.392662623121565 7.683074720980214 1 1 0
436 44 2 -0.091672 6.715939066270372 1.6579947195974958 13.184936405197778 -1 1 1
578 58 6 0.404798 1.1450708816006816 6.880751412859394 9.555098003690148 2 -1 1
454 46 4 0.404798 0.23138620108938837 1.207177848903577 9.504423167904338 1 0 1
457 46 5 0.404798 2.3826054588479337 2.249142668411512 8.285452303542359 1 0 1
440 44 10 -0.358962 6.179899964433643 2.4754874806170633 10.807303450593388 -1 1 1
438 44 6 0.404798 6.473356721228588 2.0876716122892405 11.860433075356038 -1 1 1
437 44 5 0.404798 6.440671011841559 2.5991505712206857 14.168297992050569 -1 1 1
439 44 9 -0.358962 6.1962778534414005 3.395698592009662 14.975381158109515 -1 1 1
431 44 1 -0.091672 7.248707594613393 0.4477924065215555 13.402118577866789 -1 1 1
1515 152 8 -0.358962 9.244937256499007 4.321852420690495 14.741057078885055 1 0 1
87 9 5 0.404798 6.662486112111675 9.803801417281337 10.788634990499162 0 -1 0
85 9 8 -0.358962 4.712452241989523 7.6565159266546114 12.752379974282363 0 -1 0
84 9 4 0.404798 5.670003696856442 7.564470240113739 12.104134009793311 0 -1 0
1150 115 10 -0.358962 3.5870959815391843 8.328117735979854 9.468345278086813 1 1 1
579 58 9 -0.358962 4.002475160363269 5.059683432806899 8.864087769551293 2 -1 1
839 84 9 -0.358962 3.618207983465057 0.5517603170597765 14.489075252440108 0 3 -2
460 46 10 -0.358962 4.878300041214362 0.22064646288405226 9.759523260012546 1 0 1
576 58 2 -0.091672 1.9554717788533382 5.857822990264281 10.108005799719614 2 -1 1
938 94 6 0.404798 0.9247229179646009 9.373793620229256 14.911419520634485 1 1 -2
1569 157 9 -0.358962 14.864868783910175 4.942352489985844 14.622935671189824 -1 -1 2
577 58 5 0.404798 3.107003596966819 5.496320853123129 9.45829181755613 2 -1 1
571 58 1 -0.091672 1.5023349148777871 5.177746400021812 11.169967589205479 2 -1 1
574 58 4 0.404798 2.380061071823798 4.261727756623814 11.729476239154046 2 -1 1
940 94 10 -0.358962 0.625228666791066 8.273042970744497 15.121779295709604 1 1 -2
575 58 8 -0.358962 3.1800610481023694 3.5607497167496103 12.192325923559189 2 -1 1
458 46 6 0.404798 3.8356666914844277 0.676037655570644 9.53339371735522 1 0 1
1275 128 8 -0.358962 14.341356946096372 8.830424639171431 12.626915923519784 0 -1 0
1567 157 5 0.404798 13.999023681068264 4.831563563387613 13.858973573541222 -1 -1 2
456 46 2 -0.091672 2.578629778282422 1.1889007019777156 9.244963247741815 1 0 1
81 9 1 -0.091672 6.919595013475155 7.562900587369888 11.36101551466377 0 -1 0
1271 128 1 -0.091672 12.134947990402132 10.011504444056882 12.024554073880736 0 -1 0
451 46 1 -0.091672 1.5264568904041755 0.671970317452708 9.89405121859623 1 0 1
1273 128 7 -0.358962 9.896370008426844 8.883558823109995 12.665316346187232 0 -1 0
1455 146 8 -0.358962 15.621751317321435 6.479760559916268 11.299913097985522 2 1 -1
1519 152 9 -0.358962 11.831613834533023 7.5476225917666975 14.239407392178013 1 0 1
214 22 4 0.404798 5.531550742381144 10.009800276397197 15.04240016812769 2 1 -1
1169 117 9 -0.358962 13.993734408463045 7.33512035494035 8.593453924092358 -1 -1 0
1566 157 2 -0.091672 12.993868236569021 4.613717689586701 12.880259676811965 -1 -1 2
181 19 1 -0.091672 8.452530553016121 3.3810031823681412 8.165075409985707 1 1 0
182 19 3 0.404798 8.721719302311458 1.9847971647252602 8.15418924547273 1 1 0
183 19 7 -0.358962 8.859538012131464 0.8333382261183521 8.126833815230171 1 1 0
185 19 8 -0.358962 10.444576894353965 4.942974558039512 8.73892482784622 1 1 0
90 9 10 -0.358962 9.477987199626176 8.386912191548246 9.127573579733095 0 -1 0
580 58 10 -0.358962 0.4115844451262704 7.686457609072574 9.157058799353814 2 -1 1
1272 128 3 0.404798 10.912630646344358 9.358332946379582 12.369674916078843 0 -1 0
1020 102 10 -0.358962 15.392676866884845 0.3310506863634366 13.832726633287049 0 2 0
1568 157 6 0.404798 12.834313738996988 5.5022394959323835 11.785744471129505 -1 -1 2
184 19 4 0.404798 9.536706381733026 4.237366474194398 8.585665672308448 1 1 0
1155 116 8 -0.358962 12.564024155216453 1.9327343535110082 8.757039557132734 0 1 1
1565 157 8 -0.358962 12.314482199313415 2.307542721839718 15.31334783098246 -1 -1 2
1570 157 10 -0.358962 12.52557535912795 6.254919264131799 10.958850412128506 -1 -1 2
1563 157 7 -0.358962 10.193461917317768 3.1958110861597424 11.509959119300554 -1 -1 2
1274 128 4 0.404798 13.34641546294007 9.359569448292323 12.351784626892199 0 -1 0
82 9 3 0.404798 7.599641941313059 6.325315769036042 11.362111614689667 0 -1 0
83 9 7 -0.358962 8.000054935366979 5.2433929854236 11.24081640729092 0 -1 0
88 9 6 0.404798 8.503886837307913 8.483674807171836 9.749960541809747 0 -1 0
86 9 2 -0.091672 7.262504619105618 8.562269819376967 10.536834613110702 0 -1 0
1561 157 1 -0.091672 12.081600638637862 3.6633461207779145 13.125538532220466 -1 -1 2
572 58 3 0.404798 0.2279349819470479 5.184650570914164 11.660461396290678 2 -1 1
1562 157 3 0.404798 11.062115845242904 3.38750812081247 12.25446742417182 -1 -1 2
213 22 7 -0.358962 8.071036288328681 7.786542853354054 15.3074421869555 2 1 -1
1564 157 4 0.404798 12.22432274962187 2.819005349992446 14.27610279115544 -1 -1 2
1148 115 6 0.404798 3.978331341135328 8.8621986079484 8.515826216604518 1 1 1
1260 126 10 -0.358962 11.023178506491217 0.05455778742905437 13.523543100226222 0 -1 0
1517 152 5 0.404798 11.611804499184025 7.06023450148566 15.268842532206339 1 0 1
1170 117 10 -0.358962 15.529837045959395 3.391706767673766 8.003206866419907 -1 -1 0
837 84 5 0.404798 3.434541494448799 0.7512005440367894 15.616945026651845 0 3 -2
1514 152 4 0.404798 9.797379380558247 4.8354966513296915 15.622293325489213 1 0 1
1167 117 5 0.404798 14.404666916238773 6.556402521685429 7.838249948656998 -1 -1 0
1154 116 4 0.404798 13.050909841478806 1.3540190966690209 7.877476602691798 0 1 1
219 22 9 -0.358962 3.103590174497424 10.078580187204324 17.642007092107196 2 1 -1
254 26 4 0.404798 5.125172680247231 5.21516803201783 21.944378885013375 -1 1 1
220 22 10 -0.358962 6.074702628148038 7.082573934785516 18.854801223983422 2 1 -1
218 22 6 0.404798 5.6389649332147975 7.81193092222639 18.06500944769321 2 1 -1
831 84 1 -0.091672 3.3968222748357926 2.1888905892376482 17.57893285817791 0 3 -2
255 26 8 -0.358962 4.408653133469507 5.780688834511366 21.228567476298178 -1 1 1
833 84 7 -0.358962 3.221517540658036 2.506378369552595 20.17377447816501 0 3 -2
832 84 3 0.404798 3.253214546254396 2.329658571551967 19.027752916763625 0 3 -2
216 22 2 -0.091672 5.17685538329018 8.76836091107366 17.11012735078515 2 1 -1
835 84 8 -0.358962 3.6736986152805757 4.325666685289327 16.20659364403305 0 3 -2
532 54 3 0.404798 6.81110989637596 0.058204427168231376 19.463375238899534 0 1 -1
834 84 4 0.404798 3.547957355040072 3.317105595217863 16.765694417587106 0 3 -2
836 84 2 -0.091672 3.274991919420192 0.9668243578711081 17.042918363154097 0 3 -2
541 55 1 -0.091672 7.1821599910125125 9.505592268542985 21.260547304977635 1 -1 0
1582 159 3 0.404798 1.2373427693847756 7.0071603219956495 18.283206989796295 0 -2 -1
640 64 10 -0.358962 0.21518096036164866 3.748325571805455 17.756521154025478 2 -1 0
660 66 10 -0.358962 15.268279721690888 7.9104495327706195 16.84843285949506 0 0 -1
251 26 1 -0.091672 5.855259675966068 4.443101972301765 22.91587131853789 -1 1 1
252 26 3 0.404798 7.300658016905469 4.625546886318966 22.928522717565286 -1 1 1
1583 159 7 -0.358962 2.20051884179841 6.602288606892549 17.77925188261085 0 -2 -1
217 22 5 0.404798 4.094452481612238 9.514204732365691 17.42923434763946 2 1 -1
1581 159 1 -0.091672 0.12253087823580304 7.698161655826351 18.924073556124632 0 -2 -1
537 54 5 0.404798 10.01607258771261 1.8742137021455465 19.094242332912852 0 1 -1
555 56 8 -0.358962 12.535875408010506 2.363357516791858 23.44603305365586 -1 0 -3
536 54 2 -0.091672 8.687725936459621 1.552156773736671 19.378372914843478 0 1 -1
1588 159 6 0.404798 1.6057044975458612 9.236006806184378 20.004203608144238 0 -2 -1
1590 159 10 -0.358962 2.7084239438615234 9.507384287384872 20.24077090626503 0 -2 -1
211 22 1 -0.091672 5.844351639391176 8.936294757206793 15.960411295885018 2 1 -1
1586 159 2 -0.091672 0.2596996653524042 8.719282519957359 19.780868113282487 0 -2 -1
538 54 6 0.404798 7.727073762799099 2.6582087160118166 19.506092683947966 0 1 -1
540 54 10 -0.358962 6.870478371740828 3.43559352460287 19.419390836423748 0 1 -1
558 56 6 0.404798 11.334824378243122 6.949254030313777 22.075551383230685 -1 0 -3
570 57 10 -0.358962 15.486998710975616 2.1097012485118714 17.38664207516432 -1 1 1
1516 152 2 -0.091672 11.3331599892718 6.489968690749494 16.511296289356217 1 0 1
1323 133 7 -0.358962 13.203503159995305 10.139795063309128 20.917586614675535 3 1 -1
560 56 10 -0.358962 10.93307535813572 8.033996825839504 21.98877088325954 -1 0 -3
253 26 7 -0.358962 8.460563984548898 4.639133001888594 22.922728113306473 -1 1 1
623 63 7 -0.358962 9.976890995662245 10.154424812341487 16.802400649095055 -1 -1 1
551 56 1 -0.091672 11.757640306937711 4.826177649362199 23.29986689593279 -1 0 -3
554 56 4 0.404798 12.244023869201492 3.4820665333722407 23.351625338856394 -1 0 -3
542 55 3 0.404798 7.799028176669964 9.066828766023246 20.033638457408102 1 -1 0
557 56 5 0.404798 12.335038707525413 4.929978268299894 21.059030644731017 -1 0 -3
544 55 4 0.404798 7.238691773203681 8.64753009419529 22.338037339828873 1 -1 0
518 52 6 0.404798 0.03861321086133529 2.03330550832247 21.439098851729845 1 0 -1
1511 152 1 -0.091672 10.480359907204727 5.4852463886973855 16.753917642974447 1 0 1
556 56 2 -0.091672 11.80062350576411 5.585836954810019 22.19683915109923 -1 0 -3
1520 152 10 -0.358962 11.948716748032542 7.9587367074489155 18.563845803767975 1 0 1
559 56 9 -0.358962 12.773801439455926 4.311956195696473 20.180887146477616 -1 0 -3
1512 152 3 0.404798 10.081454913312765 5.093825365098615 18.026416682529234 1 0 1
300 30 10 -0.358962 5.979823600522042 0.25020564876196355 22.37315434469221 1 1 1
1518 152 6 0.404798 11.709333706800663 7.331563419524979 17.617828133679698 1 0 1
543 55 7 -0.358962 8.399482201911178 8.695695570717616 19.11314123753818 1 -1 0
539 54 9 -0.358962 11.12073908095923 2.1828307114360745 18.92084253789099 0 1 -1
1513 152 7 -0.358962 9.7690804985263 4.79066741571407 19.10164574446044 1 0 1
531 54 1 -0.091672 8.217134167404705 0.2989654945141126 19.43882956416123 0 1 -1
545 55 8 -0.358962 7.205288782157886 7.847081394536116 23.176945034334345 1 -1 0
681 69 1 -0.091672 0.7851189402664915 7.4229237832296535 23.41089470501232 1 2 -1
212 22 3 0.404798 7.092570912912611 8.300678889649452 15.659393428268116 2 1 -1
165 17 8 -0.358962 4.5768064912138895 6.124339542528332 26.76276384053714 0 0 -2
166 17 2 -0.091672 3.523043066157537 8.616997007651834 29.040629093900026 0 0 -2
167 17 5 0.404798 4.88201798509869 8.573818153014896 29.434574754568693 0 0 -2
164 17 4 0.404798 3.910806544715229 6.815378310773721 27.414307772800605 0 0 -2
19 2 9 -0.358962 4.459292479555739 4.20297434404675 29.65635421759192 0 0 -1
17 2 5 0.404798 5.580168338829817 4.487226458657894 29.564495299033087 0 0 -1
1429 143 9 -0.358962 2.939961906491584 2.1640038127985504 27.824911243294615 0 -2 0
161 17 1 -0.091672 3.0708309628522894 7.746946898472767 28.12732901426967 0 0 -2
686 69 2 -0.091672 0.4364491340372673 8.684889124833067 23.696329201252997 1 2 -1
1426 143 2 -0.091672 2.5557073860812407 1.174259085914437 30.219212549495623 0 -2 0
519 52 9 -0.358962 0.2302326917275095 0.43662405206738447 24.629856097869038 1 0 -1
275 28 8 -0.358962 14.871346275207863 1.8527506157398703 31.093619287339806 1 1 -1
1427 143 5 0.404798 2.712650690393501 1.7507086370771956 28.88468325280515 0 -2 0
16 2 2 -0.091672 6.93174944737185 4.756590149793272 29.46888372714789 0 0 -1
143 15 7 -0.358962 15.612391245365346 8.87642821911272 26.56231774065349 -1 -1 1
169 17 9 -0.358962 5.979841187187965 8.546647461622982 29.808267108354315 0 0 -2
552 56 3 0.404798 11.195516069639751 5.326274249813934 24.529068860963182 -1 0 -3
1421 143 1 -0.091672 3.407097231880697 0.3373944392693142 30.827811683240885 0 -2 0
260 26 10 -0.358962 6.5829226585197445 2.399598514428666 25.772477998944407 -1 1 1
274 28 4 0.404798 14.789372521714785 1.8121737101122501 29.937231022359235 1 1 -1
1325 133 8 -0.358962 10.209342707677969 10.293580122997971 23.932810081528093 3 1 -1
170 17 10 -0.358962 1.8276331942403043 10.035945163843714 30.33606011431415 0 0 -2
427 43 5 0.404798 9.52604245569405 1.5087202714093026 26.432358332798497 2 -1 -1
18 2 6 0.404798 7.531617852459835 4.67268633866254 28.172548375138785 0 0 -1
168 17 6 0.404798 2.641251779539639 9.501986229442872 29.704781510490637 0 0 -2
258 26 6 0.404798 6.120698268354725 2.8565374817598888 24.811668234388296 -1 1 1
1428 143 6 0.404798 1.6494677044438333 1.8893225543326162 31.08214524242532 0 -2 0
682 69 3 0.404798 2.120083808405414 6.976984858944971 23.543280460847328 1 2 -1
163 17 7 -0.358962 0.5155340000040035 7.722805268351691 27.732667417386306 0 0 -2
162 17 3 0.404798 1.6645264627340064 7.825432757127434 27.854667208676858 0 0 -2
257 26 5 0.404798 3.9512159183385815 3.3689914846856297 23.881474634602085 -1 1 1
273 28 7 -0.358962 12.86282398930884 0.09956829087822743 27.841201480431987 1 1 -1
683 69 7 -0.358962 3.2274986211984076 6.659466081880039 23.678979700204554 1 2 -1
278 28 6 0.404798 14.892602703839936 2.878795178765134 26.350152765615796 1 1 -1
259 26 9 -0.358962 2.8303921126368006 3.072461014717685 23.843742985691094 -1 1 1
280 28 10 -0.358962 14.670968791457248 2.915852743500513 25.21212588244491 1 1 -1
688 69 6 0.404798 1.447277725656928 9.690768712876364 24.00249191036401 1 2 -1
12 2 3 0.404798 8.965675713337196 5.7383335209393955 30.24704181927429 0 0 -1
20 2 10 -0.358962 8.1084114496557 4.524678926060927 27.177057056824232 0 0 -1
141 15 1 -0.091672 13.254078235245668 9.207903747871933 27.496087829452886 -1 -1 1
11 2 1 -0.091672 7.6303508732919925 5.242096418875877 30.50418065323678 0 0 -1
421 43 1 -0.091672 9.263481212635302 0.5943369174791963 28.612329955756636 2 -1 -1
271 28 1 -0.091672 14.558039798260367 1.9199702893871229 28.51639514081317 1 1 -1
276 28 2 -0.091672 15.20971183837806 2.7805592471655314 27.722474329076242 1 1 -1
425 43 8 -0.358962 10.204064403074987 2.7361208835018482 29.658335099304686 2 -1 -1
429 43 9 -0.358962 9.69376438010545 2.5039763904450036 25.860576343506576 2 -1 -1
256 26 2 -0.091672 5.339952467627468 3.5841090303612386 23.805921657984918 -1 1 1
272 28 3 0.404798 13.66001566256996 0.9031935792831032 28.094720396488686 1 1 -1
426 43 2 -0.091672 9.360563203214598 0.38665364777239514 27.29208650761709 2 -1 -1
424 43 4 0.404798 9.73710510685172 1.7729724118132097 29.211239986630737 2 -1 -1
553 56 7 -0.358962 10.669999280145689 5.766709988958497 25.464722895050482 -1 0 -3
70 7 10 -0.358962 15.013499577538253 5.7486424137567305 24.531176128987116 1 2 1
148 15 6 0.404798 12.745821843423892 6.826210950512158 27.653027637333665 -1 -1 1
142 15 3 0.404798 14.548411315507856 8.992658334080959 27.009573039037402 -1 -1 1
13 2 7 -0.358962 9.952412897846846 6.140777192172921 29.7887964294064 0 0 -1
150 15 10 -0.358962 13.08771604123956 5.756706973266756 27.361703759285543 -1 -1 1
147 15 5 0.404798 11.088303665440478 8.580024000426622 28.177572452413443 -1 -1 1
149 15 9 -0.358962 10.037767089362537 8.884354904951397 28.56403800414762 -1 -1 1
146 15 2 -0.091672 12.410663904097113 8.21322253671471 27.8040838708956 -1 -1 1
175 18 8 -0.358962 13.538550170825753 8.751336883060356 30.55805213382498 -3 -1 -1
690 69 10 -0.358962 2.4331583449456136 10.254880789263959 24.23790004895434 1 2 -1
517 52 5 0.404798 0.09356753672770203 0.5105736370432881 23.480310910922537 1 0 -1
801 81 1 -0.091672 7.316692069033832 14.929339596163215 4.3431107307976236 1 1 -1
806 81 2 -0.091672 7.6873846207104295 13.836650978427357 5.0244466406197805 1 1 -1
808 81 6 0.404798 7.436113751301461 13.653923458337056 6.385257030134539 1 1 -1
1281 129 1 -0.091672 3.6167045757277827 15.268918224363789 2.2549495664277712 0 -2 1
1284 129 4 0.404798 3.9635574293906854 13.917326851419325 2.5067396664459904 0 -2 1
1285 129 8 -0.358962 4.356088131144279 12.831256262369848 2.6161487024746433 0 -2 1
1282 129 3 0.404798 2.8216515469850862 15.831661355033354 3.280377379647467 0 -2 1
1449 145 9 -0.358962 0.39909316161928293 16.55618049755934 1.1907486432678176 1 -1 1
804 81 4 0.404798 7.434843054968974 15.030030583473412 2.8590965414677636 1 1 -1
830 83 10 -0.358962 7.015768491494551 19.821187686770116 4.36753681751969 1 1 1
445 45 8 -0.358962 15.182310896982097 19.08170262361424 3.2068503267995507 -1 0 1
1447 145 5 0.404798 0.19831227607332205 15.418414253726457 1.0869458899899755 1 -1 1
802 81 3 0.404798 6.546753537360594 15.977195132561988 5.052069430132479 1 1 -1
613 62 7 -0.358962 3.9722530337676725 19.507877224730507 3.716231774182641 1 -1 1
803 81 7 -0.358962 5.9513344027018 16.73275528340615 5.700301585980955 1 1 -1
1286 129 2 -0.091672 3.790255217094204 15.943021415261402 1.1099320686076433 0 -2 1
612 62 3 0.404798 3.0397285622988175 20.070822290444863 3.3173696783971187 1 -1 1
463 47 7 -0.358962 0.9064191567551378 10.756516576597269 4.560394743133394 1 -1 2
348 35 6 0.404798 12.645778531981403 10.828967377668194 4.225195316573831 0 0 0
350 35 10 -0.358962 13.126690299455147 10.69512839443396 3.178098852965478 0 0 0
930 93 10 -0.358962 3.0843677332370425 20.71140966617172 6.6290242937805575 -1 0 0
1290 129 10 -0.358962 3.1559253631581266 18.35964321748695 0.47054022155623254 0 -2 1
1448 145 6 0.404798 1.1006192428916384 13.14018783731543 1.1769600080472769 1 -1 1
1413 142 7 -0.358962 6.5380980283721986 18.292907277390963 1.1030496794996507 0 1 2
1283 129 7 -0.358962 2.038274965921959 16.266488014371145 4.017158862912532 0 -2 1
810 81 10 -0.358962 7.170440943750003 13.410984220874223 7.487980246445131 1 1 -1
611 62 1 -0.091672 1.803770962192954 20.67924115195629 2.892167938514945 1 -1 1
412 42 3 0.404798 1.5034474460782505 13.757130269328234 6.292150039942866 3 0 -1
1450 145 10 -0.358962 1.8298728099108117 12.259885490360903 1.374081836519094 1 -1 1
413 42 7 -0.358962 1.36105392321628 13.336653451733584 5.22045822541612 3 0 -1
614 62 4 0.404798 0.6495103445426746 20.40651446467388 3.6026565678608833 1 -1 1
1412 142 3 0.404798 7.51642124810432 18.074160798624966 0.5194113866239342 0 1 2
1509 151 9 -0.358962 14.716791403871675 11.708818957645887 7.074037563176634 3 0 1
344 35 4 0.404798 11.328119236572883 12.409916893561382 7.403362595945134 0 0 0
805 81 8 -0.358962 7.511533534549154 15.169522706653277 1.7100706362383284 1 1 -1
697 70 5 0.404798 15.52886874076332 13.402893810152593 3.2696372087358156 -1 1 1
307 31 5 0.404798 10.571487453872875 19.986462191566996 4.945406638785845 -1 1 0
696 70 2 -0.091672 15.392943580716866 14.612654976247564 2.5538562267753075 -1 1 1
807 81 5 0.404798 8.338228063633697 12.755665716979204 4.496598173204129 1 1 -1
693 70 7 -0.358962 13.827696045077898 17.28775764366567 0.837029166067744 -1 1 1
343 35 7 -0.358962 12.956677948230876 14.46089310738453 5.306923757578369 0 0 0
342 35 3 0.404798 12.57548180494808 13.423599044885453 5.659500771363919 0 0 0
308 31 6 0.404798 10.709951522398017 17.61598921341055 5.431375171390462 -1 1 0
691 70 1 -0.091672 14.223278230080272 15.088099653941088 2.105040733110331 -1 1 1
995 100 8 -0.358962 12.222344344343455 20.73110355930972 2.514428035434288 0 -1 0
990 99 10 -0.358962 9.284978294222784 20.402803414695953 1.4939854884139805 0 -1 -1
346 35 2 -0.091672 12.091466440644695 11.048915035056885 5.5788444976020015 0 0 0
306 31 2 -0.091672 11.333633579674517 18.929070428405073 5.507078010490088 -1 1 0
694 70 4 0.404798 13.03798638246088 14.279233827457864 2.3389118057190363 -1 1 1
1420 142 10 -0.358962 10.691634738931985 16.553520905084937 2.3531021495141298 0 1 2
302 31 3 0.404798 13.325501277503278 18.05989412749612 6.455656904194775 -1 1 0
809 81 9 -0.358962 8.93035943660907 11.921489864003172 3.9496693875364723 1 1 -1
1418 142 6 0.404798 10.290041237885937 16.902091468510996 1.3221699287218733 0 1 2
310 31 10 -0.358962 10.18082763909281 16.587855488454426 5.5239440401213304 -1 1 0
692 70 3 0.404798 14.04927689006397 16.33641679071528 1.4626908315341347 -1 1 1
304 31 4 0.404798 13.205189971906997 20.439558222100448 5.593047299163512 -1 1 0
301 31 1 -0.091672 12.574213774619968 19.188430761860477 5.942156167778947 -1 1 0
303 31 7 -0.358962 13.80799367038124 17.086128002865422 6.861342302096952 -1 1 0
695 70 8 -0.358962 12.014895687297631 13.73514059870567 2.3922784961426373 -1 1 1
341 35 1 -0.091672 12.007875837436634 12.238993822437164 6.189028975128993 0 0 0
1446 145 2 -0.091672 0.024827573196496644 14.017016477821501 0.8232873141469236 1 -1 1
1288 129 6 0.404798 3.316631297242106 17.266415335235177 0.8235649141311735 0 -2 1
1145 115 8 -0.358962 5.521376626724203 10.777769948350743 4.3805483429336896 1 1 1
1507 151 5 0.404798 15.33789012852508 12.527235285379794 7.612582912433668 3 0 1
1147 115 5 0.404798 4.415138603795348 11.081320550253714 7.63785484087843 1 1 1
1416 142 2 -0.091672 9.912037431559533 17.532758055513582 0.10694268665137682 0 1 2
699 70 9 -0.358962 15.549840312206179 12.420343980095486 3.8858806883753383 -1 1 1
309 31 9 -0.358962 9.989700875584456 20.82504408547261 4.394131032460479 -1 1 0
994 100 4 0.404798 13.144894632788061 20.864450753311054 1.8239792430539792 0 -1 0
411 42 1 -0.091672 1.5701700346230996 14.213799240978386 7.650395938520115 3 0 -1
1149 115 9 -0.358962 4.337679362439018 12.237310775470103 7.695184310714503 1 1 1
901 91 1 -0.091672 3.6158995305392883 17.603723693480735 10.538420696965565 1 0 0
112 12 3 0.404798 6.938055179045968 13.927540745587528 12.146029791366049 1 -1 0
902 91 3 0.404798 2.5477649201310713 17.116647785006897 11.390658155854291 1 0 0
903 91 7 -0.358962 1.7452334223946278 16.708002066875622 12.12178870888281 1 0 0
906 91 2 -0.091672 4.527770226346495 16.822796245463135 9.943236539060056 1 0 0
908 91 6 0.404798 4.388043149663689 15.448754235584113 10.061379195040118 1 0 0
910 91 10 -0.358962 4.217499889096867 14.308185249579976 10.186348803544538 1 0 0
118 12 6 0.404798 5.760891702624831 15.426448664002494 14.173641839175803 1 -1 0
116 12 2 -0.091672 6.4460018680330835 14.186913604697438 14.413886386845723 1 -1 0
111 12 1 -0.091672 7.007758983631371 13.444436360501513 13.450166241801679 1 -1 0
113 12 7 -0.358962 6.979728628565397 14.319271394117287 11.05497047503264 1 -1 0
114 12 4 0.404798 7.857194408308941 12.365830072700868 13.633653620307697 1 -1 0
907 91 5 0.404798 5.483483986957008 17.343834805493053 9.051111517967314 1 0 0
120 12 10 -0.358962 5.168098614796252 16.38062223016064 13.884247357669468 1 -1 0
115 12 8 -0.358962 8.53079669760961 11.44567371230449 13.846191249923299 1 -1 0
904 91 4 0.404798 3.7526402742318625 19.030269083642054 10.331680745891108 1 0 0
909 91 9 -0.358962 6.3017061487296875 17.834010327541087 8.39092936608161 1 0 0
415 42 8 -0.358962 1.8923975376255853 16.716074421670843 8.150507708283708 3 0 -1
416 42 2 -0.091672 1.4561238697390282 13.325126981356865 8.64681709181908 3 0 -1
937 94 5 0.404798 2.192901502747177 11.080794963713528 13.532062731176207 1 1 -2
935 94 8 -0.358962 2.154020155929752 14.083683108317372 15.298342396060576 1 1 -2
91 10 1 -0.091672 3.1758423001585623 20.816621816925217 15.471071604510461 -2 0 2
931 94 1 -0.091672 1.146207658531898 11.689694376597275 15.569022006645206 1 1 -2
936 94 2 -0.091672 1.3841797209766245 10.763664519295185 14.630172703533459 1 1 -2
414 42 4 0.404798 1.7002768974484141 15.604658012012314 7.879503591278625 3 0 -1
939 94 9 -0.358962 2.911730605756213 11.274576874186907 12.642493567242052 1 1 -2
417 42 5 0.404798 1.2992424684259392 13.735759130691317 10.031601812085057 3 0 -1
934 94 4 0.404798 1.7356980596627969 13.015591509691696 15.470931415895791 1 1 -2
345 35 8 -0.358962 10.804420445986976 12.409391102877855 8.438417819969608 0 0 0