LAMMPS data file via write_data, version 29 Sep 2021, timestep = 5000000

1620 atoms
10 atom types
1458 bonds
9 bond types
1620 angles
10 angle types
1944 dihedrals
12 dihedral types

0 31.303 xlo xhi
0 31.303 ylo yhi
0 31.303 zlo zhi

Masses

1 12.01
2 12.01
3 12.01
4 12.01
5 12.01
6 12.01
7 14.01
8 14.01
9 14.01
10 14.01

Bond Coeffs # harmonic

1 400 1.426
2 400 1.426
3 400 1.426
4 400 1.426
5 549 1.34
6 650 1.16
7 650 1.16
8 650 1.16
9 650 1.16

Angle Coeffs # harmonic

1 70 116.8
2 70 116.8
3 70 121.6
4 70 121.6
5 70 121.6
6 70 121.6
7 70 178.9
8 70 178.9
9 70 178.9
10 70 178.9

Dihedral Coeffs # opls

1 0 0 0 0
2 0 0 0 0
3 0 0 0 0
4 0 0 0 0
5 0 0 0 0
6 0 0 0 0
7 0 0 0 0
8 0 0 0 0
9 0 14 0 0
10 0 14 0 0
11 0 14 0 0
12 0 14 0 0

Atoms # full

1264 127 4 0.404798 5.251488018021413 7.132559135966604 2.3471589561864232 0 2 1
1261 127 1 -0.091672 4.587619346690842 6.132243661215318 3.104976517482565 0 2 1
1207 121 5 0.404798 1.1381272917452467 0.5201991769965579 5.548981971191338 -1 2 2
1268 127 6 0.404798 3.9787489834047833 5.087650651392891 5.175775410407658 0 2 1
1266 127 2 -0.091672 4.823733398463613 5.935792263826575 4.4092989484938245 0 2 1
1265 127 8 -0.358962 5.782411651250961 7.98004866773199 1.7593821148867004 0 2 1
1262 127 3 0.404798 3.634682539740723 5.215356643451454 2.478154922662108 0 2 1
1263 127 7 -0.358962 2.9377451567987203 4.542179439402497 1.840416153986551 0 2 1
923 93 7 -0.358962 8.57017323750512 9.937706380766164 2.6638642008380593 1 0 3
1418 142 6 0.404798 0.560367940794388 9.533914342717262 1.353370145368892 -1 -1 1
1270 127 10 -0.358962 3.384267658306406 4.3197635588068435 5.810236908091282 0 2 1
549 55 9 -0.358962 6.913892309613267 2.8047678855192797 3.5665760577470484 0 0 -2
1267 127 5 0.404798 5.767023334041944 6.671212390086011 5.057711304374244 0 2 1
1408 141 6 0.404798 7.185544200389762 0.16939601953602026 1.6349957389580527 1 -2 -2
306 31 2 -0.091672 15.00580880463938 9.40327901510827 3.6553858983275935 0 2 0
1208 121 6 0.404798 2.5953771002520214 1.8529590921059407 4.134552471014909 -1 2 2
301 31 1 -0.091672 14.133535359798007 10.38590775970465 3.9184064122494915 0 2 0
1210 121 10 -0.358962 3.7076039204443427 2.1616672121088016 4.019440291368352 -1 2 2
930 93 10 -0.358962 11.215090156877134 7.010886118512022 2.467418670072577 1 0 3
545 55 8 -0.358962 9.170726697074622 4.4377631342935295 0.5281943321470876 0 0 -2
1420 142 10 -0.358962 1.6026582973916574 10.002170751423286 1.553287028812613 -1 -1 1
1514 152 4 0.404798 8.442073603288081 9.855064707953696 6.20218740331092 2 0 2
1206 121 2 -0.091672 1.277904799547386 1.436451170612158 4.4082528666284535 -1 2 2
1407 141 5 0.404798 4.953283241514458 0.07806660603005124 1.1919856462031881 1 -2 -2
749 75 9 -0.358962 1.7844495311929522 10.082535234143336 6.478424654771212 2 1 0
921 93 1 -0.091672 10.816950436882184 10.241279236459329 1.4264273580800457 1 0 3
1515 152 8 -0.358962 9.136116717151014 8.936569933861321 6.059809348232369 2 0 2
1269 127 9 -0.358962 6.5977314122412505 7.330514082608361 5.527653184679373 0 2 1
541 55 1 -0.091672 10.120570515866675 3.8324499573829804 2.8230113775061483 0 0 -2
257 26 5 0.404798 14.698921220192789 1.6901501858605894 0.4916558937907589 0 -1 1
259 26 9 -0.358962 14.34169331162752 2.4101518678360523 1.3280683585822475 0 -1 1
928 93 6 0.404798 11.349989321661742 7.952423033679175 1.8034077823352441 1 0 3
1119 112 9 -0.358962 13.629774972912806 6.168912534350443 7.430499008505598 0 -1 2
308 31 6 0.404798 14.681351247769543 8.146280688095201 4.215648262478415 0 2 0
547 55 5 0.404798 8.038496440850114 3.0493597287722576 3.7116291151679133 0 0 -2
550 55 10 -0.358962 10.398000481206623 2.7710179681456277 6.183973566721728 0 0 -2
927 93 5 0.404798 12.775938141157987 9.292514409161857 0.40464649521576784 1 0 3
283 29 7 -0.358962 11.334028422516305 0.12411325718497679 3.0409114057993714 0 1 0
926 93 2 -0.091672 11.567552337554861 9.1722361461282 1.1275232488589924 1 0 3
544 55 4 0.404798 9.559966269465487 4.118709187153598 1.573324533993102 0 0 -2
958 96 6 0.404798 14.78988130586412 2.693452807362704 5.295504768116 0 -1 1
302 31 3 0.404798 13.049187588931101 10.239059048879657 4.8221279062304925 0 2 0
1120 112 10 -0.358962 9.24159770043145 5.6717440347536225 7.108390336898294 0 -1 2
543 55 7 -0.358962 12.65825340177452 4.523514556910941 2.9643203438632635 0 0 -2
542 55 3 0.404798 11.551022545344267 4.185126880438507 2.8926709802964035 0 0 -2
1117 112 5 0.404798 12.552345343379743 6.509592895761989 7.6925720618744755 0 -1 2
960 96 10 -0.358962 13.934782772338679 1.9497327047522472 5.54306672015253 0 -1 1
546 55 2 -0.091672 9.434956941507092 3.319698448181405 3.8538459558254954 0 0 -2
548 55 6 0.404798 9.987778223015212 3.0214698975495327 5.1282313939569395 0 0 -2
1118 112 6 0.404798 10.13841034575414 6.292793258244133 7.502883609736394 0 -1 2
310 31 10 -0.358962 14.314818068747579 7.121502097570648 4.616998818910619 0 2 0
303 31 7 -0.358962 12.212497119883004 9.980212417759482 5.582750998440605 0 2 0
833 84 7 -0.358962 0.25160081408567986 3.490153790197527 7.262290596816574 -1 1 -1
1409 141 9 -0.358962 3.988258619585172 0.6865891022511785 0.9821574614829998 1 -2 -2
1410 141 10 -0.358962 8.028363542158015 0.9444825774315437 1.8207277650981164 1 -2 -2
922 93 3 0.404798 9.632636787055018 10.090062848121535 2.223911097835989 1 0 3
1201 121 1 -0.091672 0.1349352253676061 1.9148665094785016 3.8980182861033494 -1 2 2
384 39 4 0.404798 5.8688949768956835 3.4602256300327356 10.927529048907784 0 1 4
385 39 8 -0.358962 6.393786992813173 2.7718359625855147 11.699674139459175 0 1 4
1469 147 9 -0.358962 5.190529513028648 6.3221544302748685 12.157041146856699 1 0 0
381 39 1 -0.091672 5.293304919062204 4.307944159935145 9.948076362224826 0 1 4
1337 134 5 0.404798 2.780649223425699 0.2354023049903492 10.035948933064658 -1 1 0
1461 147 1 -0.091672 1.9944727046989823 7.278172869034526 13.04753977729839 1 0 0
816 82 2 -0.091672 6.028339523909369 9.48086460859996 13.204064415592415 -1 1 2
387 39 5 0.404798 7.101805779880496 6.050290640844467 9.673244773059098 0 1 4
523 53 7 -0.358962 5.956263646652698 5.697726095673615 15.224858194731922 -2 0 0
110 11 10 -0.358962 2.758469687689004 3.5291630840765027 12.937216667362321 -1 2 2
108 11 6 0.404798 3.3705469035008813 2.797543150413497 13.597287691227457 -1 2 2
811 82 1 -0.091672 6.796856774739078 8.95473743470267 14.167480961988199 -1 1 2
814 82 4 0.404798 8.025627735049826 8.45564427424804 13.878232096887928 -1 1 2
386 39 2 -0.091672 5.813782062767588 5.41769321470511 9.40663328818127 0 1 4
106 11 2 -0.091672 4.19710270417794 2.0028610046284245 14.489983179251498 -1 2 2
1466 147 2 -0.091672 2.7419692271220577 7.167125637485283 11.940960594121064 1 0 0
1112 112 3 0.404798 9.810040798181626 8.720872926228425 8.779499239273898 0 -1 2
389 39 9 -0.358962 8.182323474576844 6.392067990908578 9.920772064838289 0 1 4
613 62 7 -0.358962 7.6837890177071735 3.2071578398410168 14.977126156766714 -4 -1 -1
107 11 5 0.404798 5.073201014810255 1.0305699737494098 13.955089871588996 -1 2 2
383 39 7 -0.358962 2.967325530918762 3.642110244839455 9.054522363638533 0 1 4
1114 112 4 0.404798 12.189773341437842 8.913197160059962 9.236707766726468 0 -1 2
819 82 9 -0.358962 6.72576877142466 9.931668246039024 10.770163950404426 -1 1 2
620 62 10 -0.358962 11.170552897522915 3.1881394100714955 13.623152235844193 -4 -1 -1
1464 147 4 0.404798 2.5051997235217924 7.023983147764562 14.346649152351288 1 0 0
1339 134 9 -0.358962 2.9365112865773644 1.1408684597438288 10.74407186396738 -1 1 0
815 82 8 -0.358962 9.111777253363975 8.144674538888937 13.615216796341477 -1 1 2
817 82 5 0.404798 6.432020915010196 9.738502726118158 11.875604713724584 -1 1 2
1467 147 5 0.404798 4.090805054804477 6.677834861674111 12.058564920559576 1 0 0
1470 147 10 -0.358962 1.8930268512641957 7.661804909000143 9.59822592415193 1 0 0
382 39 3 0.404798 4.007392993992934 3.9323596718937277 9.478332403762789 0 1 4
1465 147 8 -0.358962 2.945081026752248 6.7425608427187935 15.382460876626245 1 0 0
479 48 9 -0.358962 8.61954374871109 2.143542524999202 9.855542314891139 0 2 1
820 82 10 -0.358962 3.614238327099697 10.00934890039518 13.816456513296279 -1 1 2
818 82 6 0.404798 4.716195429102935 9.813327349875294 13.511717120998167 -1 1 2
612 62 3 0.404798 8.266386323082429 2.208097978632543 15.066902459810636 -4 -1 -1
1468 147 6 0.404798 2.2333629640246544 7.4613354659872675 10.6889061462714 1 0 0
812 82 3 0.404798 6.4651538128202795 8.826860479520812 15.534582562069273 -1 1 2
1115 112 8 -0.358962 13.07468807477053 9.483363598817958 9.72398196937477 0 -1 2
475 48 8 -0.358962 12.614639056601177 3.1406771992749127 8.976987708339804 0 2 1
300 30 10 -0.358962 15.445042284692281 3.0107529411766794 12.483566415223258 1 0 -2
388 39 6 0.404798 5.007178630950558 6.211243405164722 8.505187236983817 0 1 4
1488 149 6 0.404798 14.357247398704082 6.866911591535554 15.349141639767868 0 0 -1
611 62 1 -0.091672 9.025572563331545 1.0543652598951752 15.109801801622584 -4 -1 -1
616 62 2 -0.091672 10.309561894594902 1.0732067954541382 14.726896595519547 -4 -1 -1
25 3 8 -0.358962 15.469013886826819 5.568681535488261 9.910224962120816 -2 1 -1
471 48 1 -0.091672 11.167986378856137 4.419448720025451 10.732472802105946 0 2 1
1110 111 10 -0.358962 6.06216190038521 0.6952526556505157 8.788781469146151 -1 1 -1
473 48 7 -0.358962 12.347853649257061 6.440808725639851 11.84499020296025 0 2 1
297 30 5 0.404798 15.14746301041068 0.7010066073353215 14.958356041908402 1 0 -2
478 48 6 0.404798 9.218631412217107 4.700966989999914 12.045006372366752 0 2 1
480 48 10 -0.358962 8.589825192622431 5.206428029965777 12.878500149570568 0 2 1
477 48 5 0.404798 9.239461804808116 3.0017015799136355 10.329741273456358 0 2 1
474 48 4 0.404798 11.974053845868706 3.7305243971920414 9.743362892572499 0 2 1
1462 147 3 0.404798 0.7533183246875081 8.044129179468994 12.773962285999339 1 0 0
193 20 7 -0.358962 12.287875798875373 1.0308216608781522 11.39936563716551 3 1 1
618 62 6 0.404798 10.837539214666746 2.254060345778493 14.22498127407663 -4 -1 -1
109 11 9 -0.358962 5.791162373423898 0.13449843503872996 13.790204191944182 -1 2 2
476 48 2 -0.091672 9.93409199940042 4.007704856538856 11.054298310129713 0 2 1
472 48 3 0.404798 11.789962753229448 5.5375732178196255 11.377525374630235 0 2 1
1486 149 2 -0.091672 14.992716012307339 5.5742453892204145 15.36198773929056 0 0 -1
603 61 7 -0.358962 15.076308896415162 0.13610057861665256 9.36235629815572 2 1 1
1113 112 7 -0.358962 8.740476423561182 9.150660389194094 8.909556186096738 0 -1 2
1490 149 10 -0.358962 13.89030422240276 7.903051752007426 15.116810684480187 0 0 -1
610 61 10 -0.358962 11.009820468749876 0.10423573126835442 7.885042236482982 2 1 1
995 100 8 -0.358962 13.650552568131236 9.206661981066429 12.501116756691893 -1 1 -1
1111 112 1 -0.091672 11.113998228331852 8.16918976145697 8.675762544718786 0 -1 2
298 30 6 0.404798 15.521477543905574 1.9917454037647655 13.03254847581816 1 0 -2
1489 149 9 -0.358962 13.520728072816397 3.542812435803248 15.56170525093807 0 0 -1
994 100 4 0.404798 14.26587042659614 10.121158241359893 12.862614404166523 -1 1 -1
1487 149 5 0.404798 14.1425849107092 4.516931989141897 15.461779401330073 0 0 -1
832 84 3 0.404798 0.03116919854640443 3.3992082584639998 8.397516928094465 -1 1 -1
1108 111 6 0.404798 6.7796662801281125 0.08129704792495218 8.11510054738991 -1 1 -1
1116 112 2 -0.091672 11.26612849612289 7.0035370365597505 8.032559518322984 0 -1 2
390 39 10 -0.358962 4.470339556381918 6.997858755542049 7.842888136019058 0 1 4
484 49 4 0.404798 2.2770278270618607 9.737094147315139 19.790038509825873 -1 -1 1
486 49 2 -0.091672 0.69804001888278 8.761907042200841 18.484324860112352 -1 -1 1
813 82 7 -0.358962 6.251548247477685 8.737380326948955 16.671229372617503 -1 1 2
277 28 5 0.404798 0.0905884164666499 8.230328245938386 22.82079820571589 0 0 -1
525 53 8 -0.358962 5.222110152899334 3.753282922021094 18.892127729565544 -2 0 0
945 95 8 -0.358962 12.75949748184334 4.639465726638693 18.212930235738558 -3 2 0
1282 129 3 0.404798 6.337755425022094 3.271522311963537 22.03722599820197 2 1 -1
1283 129 7 -0.358962 6.726817093370838 4.326359998648854 22.322792939906297 2 1 -1
1281 129 1 -0.091672 5.841905595347943 1.9712642270880487 21.773309005399547 2 1 -1
1286 129 2 -0.091672 6.611868201765633 0.8971259235959238 21.551984576006888 2 1 -1
1379 138 9 -0.358962 2.611021903139266 5.149129180929169 22.2643609346052 4 2 2
482 49 3 0.404798 2.758541100964694 7.56428730818037 19.245243828441605 -1 -1 1
1377 138 5 0.404798 3.402586368658893 5.969145003888717 22.480230695888153 4 2 2
1380 138 10 -0.358962 6.33981225787371 7.08306976702924 21.355594583086866 4 2 2
706 71 2 -0.091672 0.04408111943616211 1.227671567703324 20.135033206301316 3 0 0
1285 129 8 -0.358962 3.3043846428556107 1.837610841416068 21.371297384469152 2 1 -1
1284 129 4 0.404798 4.458598922399315 1.8608014133483555 21.484662261374933 2 1 -1
1376 138 2 -0.091672 4.278628714230996 6.968970255189605 22.834220131220604 4 2 2
101 11 1 -0.091672 4.129559449633465 2.151359537881777 15.82001554922794 -1 2 2
103 11 7 -0.358962 2.696512871293126 3.82105652993592 17.15372156460718 -1 2 2
105 11 8 -0.358962 5.344381262876862 0.5635356131922311 17.42646577599771 -1 2 2
703 71 7 -0.358962 1.499358588236624 0.8479448209193565 17.075962476614528 3 0 0
481 49 1 -0.091672 1.8642249399569193 8.663279171772645 19.136923726882202 -1 -1 1
102 11 3 0.404798 3.3194110766635254 3.0652908386151214 16.532097844066882 -1 2 2
1378 138 6 0.404798 5.359300090204958 6.975599961863306 21.96604208067244 4 2 2
433 44 7 -0.358962 6.364052802494862 9.947037420235434 20.900453450201482 0 -1 -2
483 49 7 -0.358962 3.3844721617907694 6.591477974844083 19.331570716083682 -1 -1 1
702 71 3 0.404798 1.1460351021074517 0.5136421710397765 18.12905518666433 3 0 0
708 71 6 0.404798 0.16598837149509282 2.6362960035090555 19.78246211748622 3 0 0
104 11 4 0.404798 4.790094755706131 1.2688227333097741 16.69098188530329 -1 2 2
524 53 4 0.404798 5.954763632640407 4.329530324216134 18.201651197299505 -2 0 0
762 77 3 0.404798 8.887853775667647 10.18813059957435 18.932753680853438 1 1 2
701 71 1 -0.091672 0.6053632256860432 0.2874696166134938 19.362645548814008 3 0 0
521 53 1 -0.091672 6.883535164940639 5.084854358952142 17.5405151157655 -2 0 0
279 28 9 -0.358962 0.6599045847006014 8.629859396512877 21.892437304148242 0 0 -1
222 23 3 0.404798 11.413937620889685 6.573794971968004 22.569618848079664 0 2 -2
527 53 5 0.404798 8.571969378691467 5.136989833570652 19.333496193798275 -2 0 0
314 32 4 0.404798 15.032392676345019 9.199785006942319 18.453952507725948 0 -1 0
944 95 4 0.404798 12.301580804299837 3.6192135528986453 18.521147407372247 -3 2 0
223 23 7 -0.358962 10.46548353383927 7.180061640414181 22.849753774658367 0 2 -2
948 95 6 0.404798 12.030195253384392 0.061682088224382634 19.265357440271735 -3 2 0
1062 107 3 0.404798 14.716944354317885 0.001758065346763947 21.889557574901634 1 2 -1
224 23 4 0.404798 13.585682435487554 6.471023240549819 21.33981179293032 0 2 -2
530 53 10 -0.358962 9.605726984862509 6.731529371086737 16.455176215040463 -2 0 0
529 53 9 -0.358962 9.018921042774883 4.767266587950266 20.338055271802233 -2 0 0
528 53 6 0.404798 8.936450402873271 6.148670194765219 17.202132731533588 -2 0 0
1089 109 9 -0.358962 9.966549730489632 10.146751990891222 15.842750585535724 -1 1 2
226 23 2 -0.091672 12.850605016384067 4.537286849584895 22.712576614434894 0 2 -2
225 23 8 -0.358962 14.4485005918807 6.986141255656548 20.760330761419933 0 2 -2
763 77 7 -0.358962 8.511707372591529 9.09103243884106 18.910628782269054 1 1 2
319 32 9 -0.358962 11.758641864638802 9.192459835213763 19.48679268700204 0 -1 0
1288 129 6 0.404798 8.043676280645201 1.1438341033345 21.735594480572285 2 1 -1
1290 129 10 -0.358962 9.199389348202251 1.1866740776764302 21.825550316249046 2 1 -1
221 23 1 -0.091672 12.639609062253912 5.7752115676841855 22.245005119681196 0 2 -2
946 95 2 -0.091672 12.639163684053097 1.3616682477206155 19.231494827505745 -3 2 0
947 95 5 0.404798 14.030329483110515 1.4958588116408889 19.336191492848865 -3 2 0
488 49 6 0.404798 0.23856382889349667 7.711899614074171 17.72808555921508 -1 -1 1
1063 107 7 -0.358962 13.626804478347708 0.38276266769495826 21.999241491615575 1 2 -1
227 23 5 0.404798 13.98706818663821 3.778875411082361 22.364920789679346 0 2 -2
942 95 3 0.404798 10.43766437858035 2.1067744563248367 18.718178148391647 -3 2 0
941 95 1 -0.091672 11.818213148496003 2.368756941667211 18.903756238962895 -3 2 0
229 23 9 -0.358962 14.901629672121764 3.1218453536720934 22.086552694438517 0 2 -2
710 71 10 -0.358962 0.23871156801711568 3.774506190981611 19.570828194662585 3 0 0
522 53 3 0.404798 6.417698912985888 5.467234836130148 16.263872764299062 -2 0 0
526 53 2 -0.091672 8.07416018092091 5.450375582386613 18.034889792434306 -2 0 0
949 95 9 -0.358962 15.174336604976334 1.6871777521905018 19.320546386099757 -3 2 0
315 32 8 -0.358962 15.090073530620915 8.133897442098299 17.999907773347378 0 -1 0
943 95 7 -0.358962 9.294008784095753 1.9163471023927718 18.68090452625559 -3 2 0
317 32 5 0.404798 12.640148183707392 9.938724962436519 19.37892711819379 0 -1 0
62 7 3 0.404798 15.157140140462188 9.520743307740986 22.960177943010475 0 0 1
299 30 9 -0.358962 14.665172879281673 0.6154665223864086 16.00986882116444 1 0 -2
984 99 4 0.404798 0.7706527469265078 9.012034096973526 28.329898259068635 1 0 0
1035 104 8 -0.358962 3.264514061713901 1.5901348888009972 28.739506288320133 0 -1 -1
1319 132 9 -0.358962 4.4034384584157245 7.926182807606301 29.020882430594018 -1 2 1
985 99 8 -0.358962 0.9273842030358017 7.891489041076086 28.585659966616802 1 0 0
1317 132 5 0.404798 5.463900124211363 7.48140190505305 29.17316837335693 -1 2 1
1500 150 10 -0.358962 2.630670831509625 4.643107517650345 26.648782720277723 1 0 -1
1498 150 6 0.404798 3.599844254349494 4.099656103766223 26.31567096047571 1 0 -1
1496 150 2 -0.091672 4.848730598694897 3.497227071061302 25.99289459196373 1 0 -1
1491 150 1 -0.091672 5.981305108670627 4.172079944544155 25.753210243868338 1 0 -1
250 25 10 -0.358962 1.5838033329605592 2.209994339462988 24.820644412236547 1 0 0
1492 150 3 0.404798 5.970091221126824 5.6088387235090496 25.75222245426987 1 0 -1
1493 150 7 -0.358962 5.804514097371114 6.756935034634739 25.759908786841176 1 0 -1
248 25 6 0.404798 0.5806435864718846 2.0740494237290177 25.387027241928607 1 0 0
1034 104 4 0.404798 3.2360799041208317 2.6616427194430807 29.182972710485856 0 -1 -1
1375 138 8 -0.358962 2.087619886478174 7.881901747861191 25.50402937278277 4 2 2
1037 104 5 0.404798 0.7170850390844505 4.258883604338101 29.078052662507336 0 -1 -1
1036 104 2 -0.091672 1.9794068444722195 4.581137031446588 29.718143792876532 0 -1 -1
1031 104 1 -0.091672 3.114751538393523 3.870867877565664 29.764080268410048 0 -1 -1
1316 132 2 -0.091672 6.758214500433961 7.050996301867212 29.41910072623968 -1 2 1
1318 132 6 0.404798 7.166661703886546 5.898176197711041 28.662740061204392 -1 2 1
1314 132 4 0.404798 7.185739291574134 9.054154474019937 30.742150550335488 -1 2 1
1497 150 5 0.404798 4.611127657836959 2.1428362357038075 25.61920238251116 1 0 -1
981 99 1 -0.091672 0.4651161906706301 10.391662731812964 28.090658252119 1 0 0
1374 138 4 0.404798 2.9514353669376825 7.856573014292404 24.730219786362515 4 2 2
1320 132 10 -0.358962 7.470873410536504 4.998269025419593 27.996990603625406 -1 2 1
1020 102 10 -0.358962 12.380498755123575 9.909016476619671 28.359515151366033 2 0 0
1371 138 1 -0.091672 4.007852195599021 7.86233913989683 23.795558842065354 4 2 2
1499 150 9 -0.358962 4.51808873025487 1.0485241434202037 25.24580606452171 1 0 -1
438 44 6 0.404798 8.219469995678983 9.969227110043835 23.767202224785432 0 -1 -2
1372 138 3 0.404798 4.675849521838848 9.099047835151374 23.886371649244147 4 2 2
1311 132 1 -0.091672 7.561764042036406 7.783314703891918 30.202438399470985 -1 2 1
440 44 10 -0.358962 8.205243434144364 8.873860463610079 24.14873796779711 0 -1 -2
1047 105 5 0.404798 10.98007804142069 1.214509861339707 30.084153677567027 -1 0 0
1032 104 3 0.404798 4.257386558520233 4.3937078226678565 30.434877577758055 0 -1 -1
65 7 8 -0.358962 12.08237010432385 9.530301935246111 24.462689394675518 0 0 1
1494 150 4 0.404798 7.154742484878129 3.44863439063396 25.376307231013843 1 0 -1
66 7 2 -0.091672 14.892558992632717 7.5484460814282 24.408214068183042 0 0 1
64 7 4 0.404798 13.100211055808236 9.071868289524314 24.147350839404996 0 0 1
1016 102 2 -0.091672 10.033500845533766 9.75357246276481 27.383189345908146 2 0 0
1048 105 6 0.404798 10.151468069856126 2.7544997925244608 28.397487728157536 -1 0 0
1495 150 8 -0.358962 8.113589693358826 2.8846847325651983 25.0474108710235 1 0 -1
1313 132 7 -0.358962 10.074170063604642 7.35143763361253 30.229200659135554 -1 2 1
1049 105 9 -0.358962 11.791518928260725 0.88545527789793 30.844999765018056 -1 0 0
1312 132 3 0.404798 8.918756669841251 7.453984442220776 30.21900045054041 -1 2 1
230 23 10 -0.358962 11.44677295511976 3.4239984618838144 24.482227866890348 0 2 -2
454 46 4 0.404798 13.17146229185623 5.504059051151296 30.664388057700485 0 0 1
61 7 1 -0.091672 14.408823757737817 8.680942318095127 23.879959847300743 0 0 1
451 46 1 -0.091672 14.382616732953185 5.740870640912242 29.936218732570744 0 0 1
67 7 5 0.404798 14.067321704083406 6.9465991759744234 25.4117341764267 0 0 1
1019 102 9 -0.358962 9.229598901618772 7.440557343875675 26.602475777196275 2 0 0
1043 105 7 -0.358962 6.799563893585312 1.7275850982081078 27.75803044271102 -1 0 0
69 7 9 -0.358962 13.432714492707593 6.542404878986383 26.294627521904044 0 0 1
1050 105 10 -0.358962 10.25964437278706 3.556782038300019 27.566680232391906 -1 0 0
228 23 6 0.404798 12.071326138615367 4.001368563381755 23.693445833274684 0 2 -2
1017 102 5 0.404798 9.572572853152481 8.446642743030104 27.066976629656885 2 0 0
1315 132 8 -0.358962 6.901794671608444 10.101950440312345 31.1509280795287 -1 2 1
455 46 8 -0.358962 12.175266675698733 5.184429777628598 31.165418433030464 0 0 1
989 99 9 -0.358962 3.7861504100681773 10.133878728861507 27.050263143641622 1 0 0
1038 104 6 0.404798 2.0611959773516326 5.819285674028212 30.32310606086403 0 -1 -1
1041 105 1 -0.091672 8.71757832672992 0.9654563402224967 29.205045928675446 -1 0 0
459 46 9 -0.358962 13.55502850097058 2.936564018554195 27.99734144384463 0 0 1
1042 105 3 0.404798 7.6857816092211415 1.375650088056647 28.418605883311816 -1 0 0
457 46 5 0.404798 14.053688132058495 3.916464644260109 28.367116203552342 0 0 1
256 26 2 -0.091672 15.276120032079982 0.8244751649820364 30.791100281855783 0 -1 0
1046 105 2 -0.091672 9.906424707597907 1.5823633919736113 29.24591126051814 -1 0 0
1373 138 7 -0.358962 5.237717519128701 10.1081016167002 23.99460671000867 4 2 2
1018 102 6 0.404798 11.323005671374835 9.82963420401235 27.889401513230105 2 0 0
456 46 2 -0.091672 14.801906024837281 4.955483142960995 28.93473833332493 0 0 1
649 65 9 -0.358962 10.792870766666137 0.2236668534939794 24.547894158230783 -1 0 -2
1033 104 7 -0.358962 5.229640774018235 4.880036996617798 30.839606716308932 0 -1 -1
452 46 3 0.404798 15.278414325440293 6.535867638475432 30.66426242146154 0 0 1
929 93 9 -0.358962 13.793171366366026 9.422154302082957 31.16540109677769 1 0 2
1040 104 10 -0.358962 2.1635461147487707 6.851821687642203 30.84175223716956 0 -1 -1
931 94 1 -0.091672 12.594714629943232 19.823324562368466 7.2301046329017735 -1 1 0
966 97 2 -0.091672 3.388295693354247 14.40108565319804 1.3516341038317201 3 2 0
967 97 5 0.404798 2.6845248279685068 15.618936015079443 1.5783012432016983 3 2 0
969 97 9 -0.358962 2.1239171205196072 16.619910855646342 1.7496732922917955 3 2 0
968 97 6 0.404798 4.613189873464553 14.160592398833296 2.0591376949374354 3 2 0
508 51 6 0.404798 3.727076042415067 20.251863258753303 5.299594976616003 1 0 3
1513 152 7 -0.358962 5.432974561542065 10.732593886141466 7.654571331712964 2 0 2
743 75 7 -0.358962 3.311870740180256 15.721693071761754 4.958044064278055 2 1 0
742 75 3 0.404798 3.170567234210436 14.601837076756663 5.225543365281164 2 1 0
925 93 8 -0.358962 11.258747335949204 12.560909244852757 0.4336545296829055 1 0 3
899 90 9 -0.358962 8.80198279428956 13.887187144680528 1.0904623089860916 0 0 -1
1520 152 10 -0.358962 6.266572789461509 14.154914943491454 5.795162278030591 2 0 2
505 51 8 -0.358962 3.4458508181612344 19.9011707124804 0.3661954340081542 1 0 3
741 75 1 -0.091672 3.0131222948125824 13.212391860959533 5.444702973364016 2 1 0
506 51 2 -0.091672 4.04377767235099 20.111125906182828 3.9058891140376177 1 0 3
970 97 10 -0.358962 5.5984920817210675 13.899997522426265 2.6130960818138598 3 2 0
510 51 10 -0.358962 3.512434220209182 20.390467812306806 6.43110620900045 1 0 3
1518 152 6 0.404798 7.032346554336301 13.284311905112226 5.759935961135487 2 0 2
894 90 4 0.404798 7.32209565099917 16.959818012217802 2.4335299724040023 0 0 -1
895 90 8 -0.358962 6.2294070262101675 16.81081601512024 2.0737661949522166 0 0 -1
780 78 10 -0.358962 5.751289934318796 17.039704582875107 6.295786219820767 -1 -3 0
533 54 7 -0.358962 0.44848300397812274 12.985272346200011 3.4464550849060367 -1 -1 -2
1192 120 3 0.404798 13.343831989116056 20.680963089339397 0.7121076466623966 0 3 2
750 75 10 -0.358962 0.5924556313229987 14.19086128234171 7.71946928868753 2 1 0
1298 130 6 0.404798 10.519414417229036 15.061464297124786 7.013313062189137 0 0 2
896 90 2 -0.091672 9.516393983701835 16.185494533652136 2.1637447433023063 0 0 -1
503 51 7 -0.358962 0.841896413650354 19.109939537052814 3.812205152670081 1 0 3
429 43 9 -0.358962 6.907626018919126 20.002594273528793 6.930570314705467 -2 0 -1
1512 152 3 0.404798 6.413051689912916 10.898280356534661 7.056577337991144 2 0 2
502 51 3 0.404798 1.8294098119235127 19.560703254579447 3.403268286271223 1 0 3
501 51 1 -0.091672 3.115732765229927 20.003873457518154 2.94524892882004 1 0 3
504 51 4 0.404798 3.4040727213359956 19.958453336336422 1.5240267262628397 1 0 3
744 75 4 0.404798 3.9128320495494804 12.412941314280944 4.649929046989719 2 1 0
507 51 5 0.404798 5.364729809657972 20.594964706550925 3.5322619977785745 1 0 3
745 75 8 -0.358962 4.701097906814817 11.790611339677513 4.069461697586377 2 1 0
746 75 2 -0.091672 2.0170558659218827 12.65405351657132 6.145923314158341 2 1 0
932 94 3 0.404798 11.825300620581336 19.052143972309864 6.337572329416725 -1 1 0
747 75 5 0.404798 1.8241658510555707 11.239400560881812 6.403024055190778 2 1 0
934 94 4 0.404798 13.893584899065232 20.13884728913835 6.711181109096596 -1 1 0
1511 152 1 -0.091672 7.678080110555425 11.048296938419261 6.3967628873799995 2 0 2
1516 152 2 -0.091672 7.984180698438245 12.157086039480172 5.70938441187475 2 0 2
1517 152 5 0.404798 9.031913452763085 12.301456168045931 4.790826982580672 2 0 2
924 93 4 0.404798 11.142226205833085 11.500619846648624 0.8895155258837854 1 0 3
897 90 5 0.404798 9.079898176402846 14.902126342322788 1.5785826541813281 0 0 -1
891 90 1 -0.091672 8.722896669273629 17.121793447617623 2.7016168240312424 0 0 -1
748 75 6 0.404798 1.2128124380886998 13.4896312783714 7.034608781452089 2 1 0
1199 120 9 -0.358962 14.425200292907098 18.2600755122041 4.758119214436761 0 3 2
1300 130 10 -0.358962 11.328204764650616 15.211103893967733 6.195348413438554 0 0 2
9 1 9 -0.358962 0.25401880771976904 19.06560817501025 6.8880373238723145 1 0 0
1194 120 4 0.404798 14.409367356903237 18.535935858845384 1.3106949745093328 0 3 2
935 94 8 -0.358962 14.91819656999367 20.573699193514926 6.384570106001506 -1 1 0
778 78 6 0.404798 5.30175922322005 17.281578228741893 7.337428807174315 -1 -3 0
805 81 8 -0.358962 14.071520284071166 15.577322719907432 6.0924757707884405 1 0 -2
304 31 4 0.404798 14.286103824950464 11.725262917049253 3.4031304049571496 0 2 0
1519 152 9 -0.358962 9.928719950272447 12.506429215057045 4.084198253856478 2 0 2
1197 120 5 0.404798 13.988072623754213 18.997555780754823 3.976683192513661 0 3 2
893 90 7 -0.358962 9.619280076333217 19.532271948579154 3.1790009913401303 0 0 -1
1503 151 7 -0.358962 6.822733174924749 20.05583940379501 0.3742492636933274 0 0 0
933 94 7 -0.358962 11.079020613066351 18.424869999864992 5.708928141921789 -1 1 0
1195 120 8 -0.358962 14.997614295359215 17.56112163083839 1.0886527104366397 0 3 2
898 90 6 0.404798 10.910581836560835 16.42946556886614 2.1585475676496233 0 0 -1
804 81 4 0.404798 14.790732810848166 14.740138031047582 5.735467152443172 1 0 -2
1196 120 2 -0.091672 13.623341705495239 19.89604469670373 3.004484055431777 0 3 2
900 90 10 -0.358962 12.059605993422746 16.5854237360362 2.1266016201444704 0 0 -1
305 31 8 -0.358962 14.449348971247149 12.76291729094062 2.9109673998917445 0 2 0
892 90 3 0.404798 9.189480672779993 18.481069080395073 2.942685503571141 0 0 -1
1191 120 1 -0.091672 13.677828665993708 19.662000898954023 1.6862068903153922 0 3 2
961 97 1 -0.091672 2.835300569505989 13.506054589731695 0.5217450677533354 3 2 0
962 97 3 0.404798 3.4859672562698147 12.279086439935297 0.19443583424478916 3 2 0
774 78 4 0.404798 3.869093867682888 16.746744319225854 10.7466406502722 -1 -3 0
779 78 9 -0.358962 4.648685289538668 19.865762193424047 9.733090458169709 -1 -3 0
775 78 8 -0.358962 3.560786987059339 16.97618660766551 11.841128252718862 -1 -3 0
1441 145 1 -0.091672 0.05023185468108125 20.09375324898395 13.583152001993339 3 1 2
777 78 5 0.404798 4.624754558277483 18.863345706003905 9.149833630829988 -1 -3 0
776 78 2 -0.091672 4.6838615451598145 17.505987741961068 8.615338830316876 -1 -3 0
773 78 7 -0.358962 4.283896598075984 14.035552924691151 8.517071575178536 -1 -3 0
1163 117 7 -0.358962 4.568544859370526 13.261746500615283 11.596846821461025 -1 -1 0
1162 117 3 0.404798 5.201320611230075 13.325456004824954 12.566968437312697 -1 -1 0
1161 117 1 -0.091672 5.984200261085155 13.48439304307221 13.7453969603744 -1 -1 0
771 78 1 -0.091672 4.263334953545647 16.474232900433677 9.359811360211726 -1 -3 0
12 2 3 0.404798 1.648578596012521 13.42164526044517 12.339971999584412 0 -3 -1
11 2 1 -0.091672 0.8813284183210495 13.09073413109364 11.23049286058413 0 -3 -1