LAMMPS data file via write_data, version 29 Sep 2021, timestep = 5000000

1620 atoms
10 atom types
1458 bonds
9 bond types
1620 angles
10 angle types
1944 dihedrals
12 dihedral types

0 31.303 xlo xhi
0 31.303 ylo yhi
0 31.303 zlo zhi

Masses

1 12.01
2 12.01
3 12.01
4 12.01
5 12.01
6 12.01
7 14.01
8 14.01
9 14.01
10 14.01

Bond Coeffs # harmonic

1 400 1.426
2 400 1.426
3 400 1.426
4 400 1.426
5 549 1.34
6 650 1.16
7 650 1.16
8 650 1.16
9 650 1.16

Angle Coeffs # harmonic

1 70 116.8
2 70 116.8
3 70 121.6
4 70 121.6
5 70 121.6
6 70 121.6
7 70 178.9
8 70 178.9
9 70 178.9
10 70 178.9

Dihedral Coeffs # opls

1 0 0 0 0
2 0 0 0 0
3 0 0 0 0
4 0 0 0 0
5 0 0 0 0
6 0 0 0 0
7 0 0 0 0
8 0 0 0 0
9 0 14 0 0
10 0 14 0 0
11 0 14 0 0
12 0 14 0 0

Atoms # full

567 57 5 0.404798 9.517083209619683 3.630248262706533 4.1291029316210555 1 2 1
993 100 7 -0.358962 3.150074482435619 3.6352692014670875 3.3433618098317166 -1 0 -4
436 44 2 -0.091672 2.218520317697248 0.48329982407078953 5.803934116924352 2 2 -1
433 44 7 -0.358962 0.8218124292245474 1.7232384259287863 2.812328540532396 2 2 -1
992 100 3 0.404798 3.860064135400278 3.9511592519590657 2.4821253761813122 -1 0 -4
1579 158 9 -0.358962 2.03331025091493 9.960788959687777 5.508383568093262 0 -2 -2
991 100 1 -0.091672 4.765857352373654 4.338709031609876 1.4646735710639351 -1 0 -4
40 4 10 -0.358962 14.622720563939849 3.567388685641553 6.240755477934142 1 0 0
1054 106 4 0.404798 11.858407957198446 0.8332030743677482 6.536872537114487 1 1 -1
994 100 4 0.404798 6.137474645828062 4.2850604366973 1.7746555300531113 -1 0 -4
996 100 2 -0.091672 4.458815208335888 4.894066248997776 0.28446024958028693 -1 0 -4
580 58 10 -0.358962 6.623514199374215 5.1438092370310065 7.755925137641586 -1 0 1
431 44 1 -0.091672 1.408293243382891 1.4525420146564456 5.357054155672099 2 2 -1
432 44 3 0.404798 1.100489232275054 1.535586064170626 3.922610412018883 2 2 -1
565 57 8 -0.358962 6.5960411508893655 2.9638914605091133 5.155136532191627 1 2 1
54 6 4 0.404798 7.0028579991920825 7.599680563024339 2.3726391334588812 0 3 1
740 74 10 -0.358962 15.648668262093937 9.685321161916754 1.4427294689604937 -3 -2 -1
566 57 2 -0.091672 9.424533414438912 2.3121117867472063 3.56122858679045 1 2 1
434 44 4 0.404798 0.6670088798135273 2.403897519319694 6.170794942588121 2 2 -1
738 74 6 0.404798 15.41176662377968 9.698167106237879 2.578208505771363 -3 -2 -1
573 58 7 -0.358962 2.6983958702781092 4.16868879807812 7.073170657089039 -1 0 1
736 74 2 -0.091672 15.023760495755225 9.671021317680198 3.9660324528176747 -3 -2 -1
435 44 8 -0.358962 0.13294188231714532 3.1726801692847353 6.855883062650743 2 2 -1
38 4 6 0.404798 15.426438000943364 3.5071156703417463 7.0750249172501665 1 0 0
52 6 3 0.404798 6.053260631856902 6.8946328140714925 4.35644815155163 0 3 1
1230 123 10 -0.358962 13.370601304869385 8.381699430574375 0.2747475880895335 0 2 0
55 6 8 -0.358962 6.803736856869323 7.54937261045332 1.230964974678669 0 3 1
53 6 7 -0.358962 5.204492592921486 6.318458643149674 4.897942512168149 0 3 1
1228 123 6 0.404798 12.500153854589465 7.628729489800697 0.1299802685310171 0 2 0
1078 108 6 0.404798 0.9531763751138225 9.401112586967914 0.610343932217642 1 0 4
437 44 5 0.404798 2.5224887252602803 0.2889151632849925 7.1616957758999495 2 2 -1
43 5 7 -0.358962 6.222904621930601 0.418051647541845 7.106812680018984 -1 -3 -3
60 6 10 -0.358962 8.70136298265735 7.135404739541259 6.924164586001104 0 3 1
995 100 8 -0.358962 7.269609836649705 4.3252528566729245 2.024164013920081 -1 0 -4
562 57 3 0.404798 7.970289713499084 0.47365268689827544 2.9977353181877504 1 2 1
564 57 4 0.404798 7.275407454047318 2.3138470655692824 4.475795877729583 1 2 1
1305 131 8 -0.358962 11.928916980652222 5.744448347947416 6.7513447936992 0 0 2
59 6 9 -0.358962 10.46834997672887 8.459944269638704 2.9989364846113604 0 3 1
57 6 5 0.404798 9.585533040198836 8.104391154081544 3.6621229532208064 0 3 1
734 74 4 0.404798 13.704513628802113 8.535615656041692 5.671409528349116 -3 -2 -1
1221 123 1 -0.091672 11.512505449368668 5.369118746063178 0.19423299179853995 0 2 0
1304 131 4 0.404798 11.275898028135375 5.231621741297994 7.561391178271004 0 0 2
51 6 1 -0.091672 7.262262905144944 7.425115636220415 3.770735713842124 0 3 1
56 6 2 -0.091672 8.438412698820635 7.617660905506337 4.383269788865932 0 3 1
1222 123 3 0.404798 12.710400023965953 4.817185890423379 0.6754465073534345 0 2 0
1055 106 8 -0.358962 11.983095919250205 1.8354695372802061 5.966333443944548 1 1 -1
733 74 7 -0.358962 13.220470185056804 6.898552266421841 2.6957761015461736 -3 -2 -1
1224 123 4 0.404798 10.358377836301102 4.543676533683214 0.14388461411121417 0 2 0
1187 119 5 0.404798 15.413025554577613 0.41367489410187186 4.276597907649798 1 2 0
735 74 8 -0.358962 13.331310774447823 8.321091969067064 6.748581396961163 -3 -2 -1
731 74 1 -0.091672 14.171735648968728 8.697563263211206 4.31536479968404 -3 -2 -1
569 57 9 -0.358962 9.651425309530158 4.687080592788622 4.588077508972612 1 2 1
570 57 10 -0.358962 11.201527393297757 1.4155876222256065 1.9163349335489328 1 2 1
58 6 6 0.404798 8.68369020152487 7.348384148982916 5.7840209763263974 0 3 1
1189 119 9 -0.358962 15.51038482402047 1.3395439445092487 4.968615019400851 1 2 0
561 57 1 -0.091672 8.230743802705222 1.7100957272774497 3.650911751189425 1 2 1
732 74 3 0.404798 13.649672135690196 7.703286633476376 3.4125663674045743 -3 -2 -1
1080 108 10 -0.358962 1.90620372472747 8.844570446684772 0.25313286246571537 1 0 4
568 57 6 0.404798 10.44325375434686 1.7912806236903347 2.7097301402629546 1 2 1
1223 123 7 -0.358962 13.625814021293069 4.359787123033242 1.2217098160008246 0 2 0
1303 131 7 -0.358962 9.092402228472434 2.5740933343551364 7.622115680828969 0 0 2
1226 123 2 -0.091672 11.468877355178126 6.698089217053286 0.02829896302905155 0 2 0
571 58 1 -0.091672 3.7467957083151218 4.378809637560902 9.482425200815879 -1 0 1
801 81 1 -0.091672 3.967583418684745 6.940664378229962 13.745325095483839 2 0 1
346 35 2 -0.091672 0.145845641413721 9.660848676630163 9.741507762983659 0 -1 -1
802 81 3 0.404798 3.7237109311888488 5.658865995731619 14.29686102708254 2 0 1
803 81 7 -0.358962 3.495852678454436 4.573356061665085 14.636491435622307 2 0 1
48 5 6 0.404798 7.214029589068212 0.396539757282895 10.35444675444561 -1 -3 -3
399 40 9 -0.358962 15.193755214204497 4.391020367403638 13.489952331555978 4 -1 -1
347 35 5 0.404798 1.5641357679074805 9.740215828807154 9.536491686861948 0 -1 -1
199 20 9 -0.358962 1.3763458441194978 10.09957722022956 13.362978360328778 -2 1 -1
1597 160 5 0.404798 14.134527651628101 7.111915160978872 15.058102543610554 0 4 0
1594 160 4 0.404798 12.455658459064272 9.460735391903729 14.996579875215584 0 4 0
349 35 9 -0.358962 2.6989884645199167 9.698875755177557 9.299847706786212 0 -1 -1
805 81 8 -0.358962 3.0130379727028074 7.097856598881218 11.339887387696864 2 0 1
575 58 8 -0.358962 2.171597016921269 3.647248518781844 11.398520463071511 -1 0 1
574 58 4 0.404798 2.8758303770282736 3.9532241894975098 10.529018151997606 -1 0 1
804 81 4 0.404798 3.321711023123319 6.979677070990693 12.451802199416717 2 0 1
1593 160 7 -0.358962 10.026060556969647 8.332888677760666 12.762494296144325 0 4 0
576 58 2 -0.091672 5.039668877134004 4.651068790794821 9.705928963942727 -1 0 1
577 58 5 0.404798 5.7050352357474425 4.537001655231894 10.98952040751722 -1 0 1
579 58 9 -0.358962 6.243659188346052 4.560682170220419 12.016615089789106 -1 0 1
282 29 3 0.404798 5.431132762275594 1.17332793987785 14.833204438098571 -1 -1 0
470 47 10 -0.358962 0.5504650150097937 4.238452920365681 13.442466062299857 -1 2 1
798 80 6 0.404798 14.364339171168297 8.396093387138551 10.506514897511078 -4 0 2
806 81 2 -0.091672 4.483454639961838 7.9267121506398786 14.491774515085917 2 0 1
873 88 7 -0.358962 10.848395569994462 9.64942963309851 8.855692568400496 0 -2 3
215 22 8 -0.358962 7.453783911251527 8.087475060294327 13.638934947520239 0 0 2
578 58 6 0.404798 5.893464122784238 4.804086424798048 8.590919328505157 -1 0 1
807 81 5 0.404798 4.524541605101069 9.315737436670265 14.073441522928865 2 0 1
462 47 3 0.404798 1.4899528717787212 0.8107885617190771 13.35969689634026 -1 2 1
572 58 3 0.404798 3.169503866638458 4.30055625318394 8.124963528867232 -1 0 1
398 40 6 0.404798 15.084522746165716 1.2925090324007982 12.273345848667622 4 -1 -1
50 5 10 -0.358962 6.981895316607354 1.4778782523109784 10.704333534670448 -1 -3 -3
809 81 9 -0.358962 4.586709055200309 10.426839894183058 13.746047954558788 2 0 1
1302 131 3 0.404798 9.738205094743297 3.4660305686777693 7.986789030833875 0 0 2
872 88 3 0.404798 9.702855399538898 9.798374190205243 8.961301464853772 0 -2 3
871 88 1 -0.091672 8.309699377845629 9.89798463441801 9.218290776707374 0 -2 3
1309 131 9 -0.358962 11.779840166597774 6.804938570099202 10.833868665159034 0 0 2
800 80 10 -0.358962 14.146305656646716 7.678368670237942 9.621680093003738 -4 0 2
874 88 4 0.404798 7.551215829957769 8.714690200717891 9.288067136672101 0 -2 3
1591 160 1 -0.091672 12.119929223689013 8.258792887435897 14.302100013543836 0 4 0
1220 122 10 -0.358962 9.281645035418887 0.743182901733573 12.960404403777305 2 -2 1
1218 122 6 0.404798 9.199616576231715 0.5514799967356115 14.101509713669072 2 -2 1
875 88 8 -0.358962 7.101400778919519 7.647555713443951 9.355077790191643 0 -2 3
1057 106 5 0.404798 11.727980399487615 0.5625213757059665 9.50693038378355 1 1 -1
395 40 8 -0.358962 11.581651169947001 3.2800546499273837 14.911578952267435 4 -1 -1
1598 160 6 0.404798 12.480448548413749 6.041505689497792 13.572019654419218 0 4 0
33 4 7 -0.358962 14.220339363016933 5.038119659938381 10.19038389529498 1 0 0
397 40 5 0.404798 14.694577870008816 3.3580626534716322 13.31842864694605 4 -1 -1
214 22 4 0.404798 7.894015313253054 7.86172136396025 14.6881401852177 0 0 2
392 40 3 0.404798 12.511642075005584 0.43111937032335473 13.235153348854698 4 -1 -1
1306 131 2 -0.091672 10.440068682054934 4.873925514543494 9.751473030010587 0 0 2
396 40 2 -0.091672 14.213251368819375 2.083865784667092 12.976779017713122 4 -1 -1
1600 160 10 -0.358962 12.31403822155525 5.074329406255918 12.953571880415696 0 4 0
394 40 4 0.404798 12.217674096100966 2.5694297160102124 14.2512100553463 4 -1 -1
1592 160 3 0.404798 10.900819922906116 8.293550397668653 13.523315285132966 0 4 0
1308 131 6 0.404798 9.616165990141562 4.21848213188916 10.687198904139088 0 0 2
1301 131 1 -0.091672 10.517989430150632 4.518011968538376 8.46195609652042 0 0 2
1310 131 10 -0.358962 9.018965125779879 3.658122436235656 11.508751199967758 0 0 2
1059 106 9 -0.358962 11.897017740569211 1.4794224031940362 10.197088976840092 1 1 -1
1596 160 2 -0.091672 12.890573921018454 7.1642490979032525 14.36276837212511 0 4 0
1307 131 5 0.404798 11.094199148712898 5.961260667450523 10.429265144940318 0 0 2
219 22 9 -0.358962 9.005864963390271 4.473769521908305 14.671916943643023 0 0 2
796 80 2 -0.091672 14.712720325365975 9.258221446727696 11.587942438123392 -4 0 2
463 47 7 -0.358962 2.5329975371945856 0.8175397118724196 12.852141728033684 -1 2 1
391 40 1 -0.091672 13.001402726741949 1.7240461836048557 13.421248071605108 4 -1 -1
283 29 7 -0.358962 5.70652704436225 2.25975283786695 14.53414099057389 -1 -1 0
217 22 5 0.404798 8.972529406324934 5.342796221380402 15.439563567872103 0 0 2
461 47 1 -0.091672 0.21383138101614896 0.8065970791092243 13.89454521226539 -1 2 1
32 4 3 0.404798 15.143511671138784 4.382274212634641 9.938948716971097 1 0 0
439 44 9 -0.358962 2.8341373630367785 0.15503550835846597 8.270997996314467 2 2 -1
1216 122 2 -0.091672 9.270141518626717 0.29904082969586804 15.563413589221549 2 -2 1
797 80 5 0.404798 13.780529896787518 10.267593466977203 11.761721289740043 -4 0 2
345 35 8 -0.358962 0.5638185339920244 6.454111251307683 8.520917808059078 0 -1 -1
468 47 6 0.404798 0.0534568416657618 3.21914000480236 13.686564570599302 -1 2 1
344 35 4 0.404798 0.0362693559554188 7.413843049980102 8.903287720715843 0 -1 -1
1595 160 8 -0.358962 12.78575064908778 10.360021753913507 15.65073828723216 0 4 0
1599 160 9 -0.358962 15.163790945783962 7.065068371098383 15.591040112852635 0 4 0
1281 129 1 -0.091672 5.786313819068973 1.2804407702771035 20.421227674295807 1 0 -1
810 81 10 -0.358962 5.549841681731543 7.130199410477803 16.71044899169247 2 0 1
599 60 9 -0.358962 3.3356304290951773 4.980389821579872 17.85606019170009 0 -1 0
597 60 5 0.404798 2.8345957868579847 4.355062079343753 18.69482684770945 0 -1 0
596 60 2 -0.091672 2.42684971260499 3.599307407317406 19.831216509546568 0 -1 0
490 49 10 -0.358962 5.862029711252133 5.263182480702079 19.72472957899673 1 1 1
598 60 6 0.404798 2.2766585716685888 2.197919299431822 19.63220291448711 0 -1 0
592 60 3 0.404798 1.7379875338167148 3.3328344440313225 22.15548254177945 0 -1 0
591 60 1 -0.091672 2.1753797848093623 4.164627260070832 21.019819199410605 0 -1 0
594 60 4 0.404798 2.316764376605453 5.588885357797306 21.273114639833498 0 -1 0
863 87 7 -0.358962 10.765740937919508 9.652518028517873 19.011594804184515 -1 -1 -2
486 49 2 -0.091672 5.50974770298188 5.97617335218394 22.20761895717634 1 1 1
482 49 3 0.404798 6.685109356174653 8.103858720850276 21.78710914524805 1 1 1
334 34 4 0.404798 2.736697861217858 8.980767376480548 18.581246586452426 -2 -2 0
288 29 6 0.404798 2.9229062258242595 0.44633775572878265 15.807175912265715 -1 -1 0
864 87 4 0.404798 14.122084396290646 9.90030745989769 18.155500322856113 -1 -1 -2
595 60 8 -0.358962 2.4677178348134827 6.697986285328704 21.57759485327801 0 -1 0
808 81 6 0.404798 5.150701139494546 7.565688568031104 15.712132392355745 2 0 1
481 49 1 -0.091672 5.970414436846749 7.1531505678521246 22.652715414363605 1 1 1
335 34 8 -0.358962 3.6570220653496586 8.61692105944836 19.186407078401977 -2 -2 0
1284 129 4 0.404798 5.2345458678215016 0.5775466007694952 19.27945905011767 1 0 -1
488 49 6 0.404798 5.658473583377363 5.577474039988986 20.822630183934432 1 1 1
290 29 10 -0.358962 2.0165697351144134 1.111374736152506 16.093322699665322 -1 -1 0
1286 129 2 -0.091672 5.121335068251226 1.3625548447405913 21.581684726919594 1 0 -1
593 60 7 -0.358962 1.2918429877955009 2.7643544088721557 23.06288846322997 0 -1 0
1288 129 6 0.404798 5.814014601844867 1.7844063834607566 22.762979809026525 1 0 -1
332 34 3 0.404798 0.9845332368105323 8.244580693131622 17.192618547528784 -2 -2 0
331 34 1 -0.091672 1.5300314758194928 9.322500553189624 17.95688275583973 -2 -2 0
1287 129 5 0.404798 3.875206456909953 0.7148776298297259 21.822275594549748 1 0 -1
600 60 10 -0.358962 2.0600986732721083 1.0812269671927242 19.4048264452182 0 -1 0
953 96 7 -0.358962 5.13961965764269 9.969470325187993 17.717260877377406 -1 0 -1
483 49 7 -0.358962 7.321065261814688 8.77276672951077 21.08445546896994 1 1 1
1289 129 9 -0.358962 2.891040607771449 0.1130104423966545 21.943821785918775 1 0 -1
1009 101 9 -0.358962 7.885301499308029 4.415885278922105 21.655839270073884 -3 1 -2
487 49 5 0.404798 4.698405715342649 5.1603609724782125 23.12857411205672 1 1 1
333 34 7 -0.358962 0.5332839414646584 7.280782355891621 16.731026898773152 -2 -2 0
1008 101 6 0.404798 10.230165881302568 6.511688675629592 23.22697121094788 -3 1 -2
216 22 2 -0.091672 8.950982937932531 6.454563824041425 16.345408905698367 0 0 2
220 22 10 -0.358962 9.772297179140956 6.1569511571250874 18.811481057883082 0 0 2
1010 101 10 -0.358962 10.513883377872364 7.633825479130816 23.303869831643695 -3 1 -2
218 22 6 0.404798 9.428280914900554 6.23825616308862 17.70665422890386 0 0 2
1282 129 3 0.404798 7.133249369204273 1.790679595155364 20.311953194429936 1 0 -1
1283 129 7 -0.358962 8.228545076113424 2.0483245569718402 20.029913494589326 1 0 -1
211 22 1 -0.091672 8.478090864954666 7.651752134990617 15.972966572326246 0 0 2
1019 102 9 -0.358962 14.171586500338936 1.441324282524837 19.107588707240126 -2 -1 1
1217 122 5 0.404798 9.301668985599393 1.5430536522203522 16.355671513324815 2 -2 1
329 33 9 -0.358962 14.070834134250344 1.022507501596793 23.012750322009175 0 2 2
868 87 6 0.404798 12.661969877057018 7.134935972418227 20.200889062169246 -1 -1 -2
417 42 5 0.404798 0.08709719123104497 9.10823212389264 22.388929178603536 2 -1 -1
213 22 7 -0.358962 8.563259729599716 9.580299329274224 17.676128494454943 0 0 2
870 87 10 -0.358962 12.028223633645037 6.536782175769241 20.966511535232225 -1 -1 -2
1007 101 5 0.404798 8.699940875955468 4.791638250692247 22.391211552372543 -3 1 -2
861 87 1 -0.091672 13.230452609123084 9.043182233345563 18.83029036810329 -1 -1 -2
866 87 2 -0.091672 13.635332783632645 7.8951929559925915 19.390462420493176 -1 -1 -2
327 33 5 0.404798 13.476535890831192 0.18219177765359584 22.477699774575555 0 2 2
1219 122 9 -0.358962 9.344927957267217 2.5497743995584856 16.9303383928749 2 -2 1
867 87 5 0.404798 15.035334341448245 7.626246554837608 19.422441871568456 -1 -1 -2
1017 102 5 0.404798 15.15161366417011 2.055102738327985 19.199364587850102 -2 -1 1
765 77 8 -0.358962 13.451323896020144 4.119373178830005 22.244164741624935 -1 -1 3
212 22 3 0.404798 8.56257674735675 8.684928458851767 16.938625567673984 0 0 2
862 87 3 0.404798 11.91225949181277 9.48180881963482 18.967395476567944 -1 -1 -2
1006 101 2 -0.091672 9.86746706620927 5.10931528403262 23.118057649289828 -3 1 -2
1285 129 8 -0.358962 4.8269733691736585 0.08263423747030947 18.312739642664784 1 0 -1
764 77 4 0.404798 14.39275265987813 4.499125216498882 22.805502683406534 -1 -1 3
626 63 2 -0.091672 3.4726939475005416 3.8930183296623375 27.088895077314668 -4 -4 2
624 63 4 0.404798 1.3410759042089675 3.5188195854296653 25.928300197919945 -4 -4 2
628 63 6 0.404798 4.837895504060822 3.4500287793315874 27.283983853544033 -4 -4 2
621 63 1 -0.091672 2.6744403132419152 3.198152018161335 26.266975396942975 -4 -4 2
627 63 5 0.404798 3.070743771918416 5.16254333297901 27.69197790903041 -4 -4 2
622 63 3 0.404798 3.224151315934271 2.10386051810485 25.491384883655783 -4 -4 2
623 63 7 -0.358962 3.7708767817480444 1.2384188023479459 24.94576422261664 -4 -4 2
629 63 9 -0.358962 2.7208855006530692 6.175408172646026 28.136167072581387 -4 -4 2
633 64 7 -0.358962 4.05524046279156 10.102228202923543 27.727086397616027 3 2 -2
416 42 2 -0.091672 0.5643843760116567 8.757347953446668 23.639810463981373 2 -1 -1
545 55 8 -0.358962 8.493786990146058 7.717792822431512 26.10087020160804 0 1 -5
630 63 10 -0.358962 5.944401510132647 3.12688951604732 27.41369690618926 -4 -4 2
1001 101 1 -0.091672 10.481687352735749 4.1231945832547545 23.785814694233903 -3 1 -2
999 100 9 -0.358962 6.159717928612265 5.6164326899338235 29.795118940777314 -1 0 -5
485 49 8 -0.358962 5.650200559542175 8.002110855354534 25.13525714113747 1 1 1
700 70 10 -0.358962 3.6903051384007513 0.060249813625006254 27.785901503521675 -4 -1 4
62 7 3 0.404798 14.440351295942364 7.000918961039598 27.78405457106416 3 0 1
767 77 5 0.404798 14.624085083265834 6.98860272653584 24.086292906043973 -1 -1 3
761 77 1 -0.091672 15.539325015749668 4.825756374904474 23.566686064114464 -1 -1 3
544 55 4 0.404798 8.231828639781064 8.822617576353851 26.338230955645212 0 1 -5
997 100 5 0.404798 5.416198255800804 5.218763428819389 30.591760432780486 -1 0 -5
1229 123 9 -0.358962 9.230233453540347 7.779814220109721 30.642901756397272 0 2 -1
1004 101 4 0.404798 10.087578508246995 2.799990059832121 23.692389336881075 -3 1 -2
625 63 8 -0.358962 0.23271939508591719 3.8483355590833184 25.83575252011825 -4 -4 2
412 42 3 0.404798 0.078282446696962 8.04258181861782 25.85330989634914 2 -1 -1
489 49 9 -0.358962 4.088761324962836 4.434352004034342 23.797038556185193 1 1 1
1329 133 9 -0.358962 6.534237561828522 0.7623123329384998 30.945579340360762 2 2 -1
63 7 7 -0.358962 15.254568514430735 7.783865036011663 27.520149693445255 3 0 1
785 79 8 -0.358962 11.783714324317831 1.231499584506229 25.28533394955914 0 1 0
784 79 4 0.404798 12.400370167774822 0.373603007014557 25.76423794217813 0 1 0
789 79 9 -0.358962 13.237312167116658 1.6426641747268973 29.068013239044664 0 1 0
541 55 1 -0.091672 7.989611459547758 10.190974112514803 26.550272169618538 0 1 -5
418 42 6 0.404798 1.8002132498660175 9.37072734629519 24.160440459297664 2 -1 -1
67 7 5 0.404798 11.25122722724121 5.246872155756329 28.061057094041402 3 0 1
1227 123 5 0.404798 10.223762360542247 7.26694189208743 30.95187151758224 0 2 -1
66 7 2 -0.091672 12.234161452128163 6.146258793890713 27.643504653813658 3 0 1
1002 101 3 0.404798 11.55532774163391 4.420677851184195 24.6381480427426 -3 1 -2
549 55 9 -0.358962 10.537542508516143 9.988588923625812 28.871985322639343 0 1 -5
69 7 9 -0.358962 10.528995995020306 4.399894443636108 28.38757021205108 3 0 1
68 7 6 0.404798 11.935535347655769 7.242279974687113 26.912229166599555 3 0 1
769 77 9 -0.358962 13.64611652861164 7.606074804236749 23.99737865211116 -1 -1 3
70 7 10 -0.358962 11.592150863407104 8.160493852331166 26.292091761826825 3 0 1
61 7 1 -0.091672 13.48803688799498 5.973826758780964 28.083576903318846 3 0 1
1003 101 7 -0.358962 12.397496739325293 4.5234760977184125 25.429213096914 -3 1 -2
64 7 4 0.404798 13.906602247753442 4.898090565906482 28.957606482132444 3 0 1
413 42 7 -0.358962 0.2783615042832269 7.963213283213286 26.993164716664136 2 -1 -1
640 64 10 -0.358962 7.391880477243579 9.62995751835192 30.134660795978114 3 2 -2
787 79 5 0.404798 13.461035414811032 0.7747469733967338 28.331624990938632 0 1 0
420 42 10 -0.358962 2.82863222922909 9.797768089325015 24.48538755018548 2 -1 -1
65 7 8 -0.358962 14.246402443603662 4.0885371944948785 29.71573523304698 3 0 1
1333 134 7 -0.358962 8.419613284236991 0.48324559707572573 25.61262848262776 -1 2 1
1243 125 7 -0.358962 13.471789551595009 10.09724311473754 26.585153213928603 -1 2 -3
484 49 4 0.404798 5.809904051641444 7.612583559941724 24.054348593835996 1 1 1
1290 129 10 -0.358962 6.468815220255951 1.8864337337198884 23.715044187318778 1 0 -1
1225 123 8 -0.358962 9.513457716297046 3.8114810865768094 31.13769237722557 0 2 -1
998 100 6 0.404798 3.1281976725620018 5.211519539001764 31.27113922694764 -1 0 -5
1000 100 10 -0.358962 2.004040383757488 5.479857810354621 31.171816596923744 -1 0 -5
1005 101 8 -0.358962 9.686796149504495 1.7133240316710066 23.62812076713065 -3 1 -2
294 30 4 0.404798 2.904976148156522 17.699922286361392 2.7388600308584223 1 2 4
1359 136 9 -0.358962 10.249794034495826 16.067176337711146 4.368334014129863 -1 1 -2
1351 136 1 -0.091672 7.768313166513376 13.765264678642529 3.6051961230854266 -1 1 -2
1357 136 5 0.404798 9.850539940836079 15.073426422209671 3.9226241564147357 -1 1 -2
1355 136 8 -0.358962 6.6344646293415686 15.520072389553379 5.0883896027518265 -1 1 -2
1356 136 2 -0.091672 9.089509467518774 13.918323746336291 3.4420604045370338 -1 1 -2
1354 136 4 0.404798 7.086519088161433 14.7134157451279 4.387995539254309 -1 1 -2
1358 136 6 0.404798 9.819397352285085 12.887532002415837 2.7349888971731393 -1 1 -2
1360 136 10 -0.358962 10.25014563858528 12.043784132323793 2.0655522042113574 -1 1 -2
291 30 1 -0.091672 2.0478268004894287 18.713611940512692 2.1798750053388716 1 2 4
750 75 10 -0.358962 11.268577266090228 14.996851242057435 7.7945050986554145 -1 1 3
295 30 8 -0.358962 3.7018638441684466 16.91684672634807 3.0508899890510297 1 2 4
1575 158 8 -0.358962 0.47422243640456446 12.909955233719819 7.615654415236545 0 -2 -2
5 1 8 -0.358962 7.980838096070916 18.802107217211624 4.819109675672777 3 0 2
4 1 4 0.404798 7.329596873414603 19.463103868363696 4.123000274125828 3 0 2
931 94 1 -0.091672 0.26297440232402003 16.550046951206976 5.408828930609394 0 1 -2
1050 105 10 -0.358962 4.2458867454244835 19.596170074057767 7.2854268412116445 -1 -1 -2
1571 158 1 -0.091672 3.07743492290114 12.506198023331631 7.530266087275081 0 -2 -2
1 1 1 -0.091672 6.574889548317578 20.249843160630984 3.1874978379935097 3 0 2
7 1 5 0.404798 6.1431654903306985 18.4408272807946 1.5727967971289534 3 0 2
1073 108 7 -0.358962 2.535558861052361 11.944191976894972 2.909598076513074 1 0 4
292 30 3 0.404798 1.2942720150918128 18.38108217851284 1.0165065764811827 1 2 4
1072 108 3 0.404798 1.4992584369760484 11.658695514910429 2.473509537165904 1 0 4
1352 136 3 0.404798 7.012918547219603 12.830221593415558 2.8981326335824207 -1 1 -2
1574 158 4 0.404798 1.622446100862981 12.748910374801355 7.580341876396765 0 -2 -2
6 1 2 -0.091672 6.072034164094638 19.810194751012123 2.025841367994174 3 0 2
935 94 8 -0.358962 1.958711270745557 15.04730700235436 4.268305292583808 0 1 -2
293 30 7 -0.358962 0.7076083745266633 18.091111667889795 0.05872637156620074 1 2 4
1578 158 6 0.404798 4.957111037015656 10.888266540074925 7.063917077042316 0 -2 -2
406 41 2 -0.091672 12.324964549486822 20.351291881453957 5.1133972266304735 0 2 2
9 1 9 -0.358962 6.259988279754738 17.35772204916788 1.1742550795438502 3 0 2
934 94 4 0.404798 1.1495562180797907 15.677859614543001 4.809850774401877 0 1 -2
932 94 3 0.404798 0.679350028113196 17.89199077113116 5.3626561501574175 0 1 -2
1353 136 7 -0.358962 6.307795035552716 12.07805293615673 2.3664906796800884 -1 1 -2
747 75 5 0.404798 10.428511030305543 12.370863844207022 5.6847958296409065 -1 1 3
296 30 2 -0.091672 2.1656638551609952 20.00297303428304 2.5252188911402134 1 2 4
404 41 4 0.404798 11.777557513234402 18.468782857639614 6.572960367957412 0 2 2
250 25 10 -0.358962 15.059962475162395 17.728198774690114 1.9665075143733903 -1 0 1
297 30 5 0.404798 3.0011133527541745 20.318582796619648 3.6391591677160124 1 2 4
248 25 6 0.404798 14.994279414735065 18.051084748806357 0.8542888353832591 -1 0 1
157 16 5 0.404798 13.192541827443252 14.434051241739162 0.7649711325783963 0 -2 1
405 41 8 -0.358962 11.169897721903533 17.784033663081335 7.2853283451455475 0 2 2
1071 108 1 -0.091672 0.17683975779554917 11.240631202756077 2.0172526688581613 1 0 4
152 16 3 0.404798 10.009179611903184 16.177545188862066 0.9944040344263363 0 -2 1
748 75 6 0.404798 11.359613839982586 14.225036696751816 6.933334576984954 -1 1 3
153 16 7 -0.358962 9.163006416329488 16.802019119630376 1.4839173013389435 0 -2 1
737 74 5 0.404798 15.348196786201068 10.816355034044646 4.810436929978165 -3 -2 -1
745 75 8 -0.358962 13.015317423744222 11.74468160783786 3.210624698614264 -1 1 3
159 16 9 -0.358962 13.968091880489352 13.684213103797525 0.3385149243948537 0 -2 1
742 75 3 0.404798 13.763067650715884 13.937976973837165 5.813873257459733 -1 1 3
744 75 4 0.404798 12.896810093029496 12.36262549056154 4.185150933321556 -1 1 3
160 16 10 -0.358962 12.845471829828972 16.544576423757004 3.365439182651356 0 -2 1
963 97 7 -0.358962 11.870985999049427 18.99292066671682 2.3814807816952563 -3 6 -1
151 16 1 -0.091672 11.106590105243123 15.421307624998875 0.5054353667458906 0 -2 1
158 16 6 0.404798 12.530681382284607 15.997048849848804 2.392443533055792 0 -2 1
746 75 2 -0.091672 11.492817178839326 13.22144368252336 5.985617495404086 -1 1 3
749 75 9 -0.358962 9.458812496179586 11.811418064904636 5.380978154784353 -1 1 3
156 16 2 -0.091672 12.218744777554168 15.299318170061534 1.2428840567202109 0 -2 1
741 75 1 -0.091672 12.668015712187168 13.129460085478856 5.3483988794691 -1 1 3
743 75 7 -0.358962 14.610049016687746 14.528119911540092 6.3429799560392395 -1 1 3
403 41 7 -0.358962 15.051119330886157 18.285144179566835 5.554840869632398 0 2 2
401 41 1 -0.091672 12.655407972969874 19.227423148710216 5.764032468458231 0 2 2
402 41 3 0.404798 13.976723004024723 18.710400990191143 5.656964272719031 0 2 2
1576 158 2 -0.091672 3.611708097843156 11.418859536445446 6.957686631342929 0 -2 -2
962 97 3 0.404798 11.185295771891653 19.88059249930478 2.0857314731469323 -3 6 -1
933 94 7 -0.358962 1.1008887809373478 18.97092819178313 5.301018963533402 0 1 -2
8 1 6 0.404798 5.36538311025779 20.727484894939106 1.2173389698252162 3 0 2
1580 158 10 -0.358962 6.087523886462227 10.631428004000467 7.02148148310988 0 -2 -2
739 74 9 -0.358962 15.554430340710182 11.787533803827676 5.410336521011503 -3 -2 -1
299 30 9 -0.358962 3.5978925365208987 20.65951217236057 4.5736225444694885 1 2 4
966 97 2 -0.091672 9.635323655303935 20.780020578989568 0.5745033152063105 -3 6 -1
407 41 5 0.404798 10.984826330324317 20.688168278404834 5.097854643021694 0 2 2
1577 158 5 0.404798 2.724587277400901 10.592642554770311 6.192852056821631 0 -2 -2
515 52 8 -0.358962 0.14443424702972818 20.061043231244597 11.256462462311514 0 -1 -4
878 88 6 0.404798 8.412026135578937 12.444602998143441 9.458815657571362 0 -2 3
1545 155 8 -0.358962 4.84728935328525 15.799265576327473 11.090003085109528 3 -2 0
1046 105 2 -0.091672 5.831913753262448 19.131395024276586 9.23302693346382 -1 -1 -2
880 88 10 -0.358962 8.877408310999988 13.491474810772406 9.276939655281362 0 -2 3
538 54 6 0.404798 2.9540185657333105 16.09632316205932 15.169748526958218 -2 3 2
876 88 2 -0.091672 7.7780846971999615 11.094865269769166 9.501950096132969 0 -2 3
197 20 5 0.404798 0.6896700314899527 10.974665391484422 13.69206352559104 -2 1 -1
517 52 5 0.404798 3.508426369397874 19.511812133989533 12.616072161208349 0 -1 -4
1041 105 1 -0.091672 6.08586864127783 20.064987303823145 10.160125847785036 -1 -1 -2
533 54 7 -0.358962 0.5566857773859278 17.013277315870027 12.89192636044656 -2 3 2
519 52 9 -0.358962 3.7545020804327436 18.3986548909965 12.401764672016471 0 -1 -4
532 54 3 0.404798 1.0314518898894147 17.49377467562875 13.834963709975243 -2 3 2
531 54 1 -0.091672 1.615355827301445 18.095413046580283 14.989430292047349 -2 3 2
1472 148 3 0.404798 8.9170615767412 13.440318449956154 13.272920405270828 0 0 0
200 20 10 -0.358962 0.34191092445532173 14.307818127789766 14.790527075148185 -2 1 -1
1473 148 7 -0.358962 8.653686062723258 12.318796036327168 13.408643706718767 0 0 0
1549 155 9 -0.358962 1.4747567127542083 12.99001999326855 10.854607386857476 3 -2 0
1547 155 5 0.404798 1.434619961842146 14.131855428459678 10.654105774174226 3 -2 0
1542 155 3 0.404798 2.3892878891729494 17.661428467375114 9.66616594434224 3 -2 0
540 54 10 -0.358962 3.2735363532543307 15.075612519827274 14.720684861751058 -2 3 2
1544 155 4 0.404798 3.7863373779135863 15.991147304351442 10.662028411959815 3 -2 0
1479 148 9 -0.358962 11.18965612134094 17.695230745648715 13.908035167934788 0 0 0
1047 105 5 0.404798 6.436302385243905 17.810476517204908 9.247363628653305 -1 -1 -2