LAMMPS data file
# Generated by Playmol on 6-Jan-2025 at 13:43:25

3 atom types
3 bond types
3 angle types
3 dihedral types

40 atoms
36 bonds
40 angles
48 dihedrals

-5.30065012 5.30065012 xlo xhi
-2.96950006 2.96950006 ylo yhi
-5.09130001 5.09130001 zlo zhi
0.00000000 0.00000000 0.00000000 xy xz yz

Masses

1 12.01 # CZ
2 12.01 # CM
3 14.01 # NZ

# Elements: C? C? N?

Pair Coeffs # lj/cut/coul/long

1 0.0660 3.30000 # CZ
2 0.0760 3.55000 # CM
3 0.1700 3.20000 # NZ

Bond Coeffs # harmonic

1 650.0 1.160 # CZ NZ
2 400.0 1.426 # CZ CM
3 549.0 1.340 # CM CM

Angle Coeffs # harmonic

1 70.0 178.9 # CM CZ NZ
2 70.0 116.8 # CZ CM CZ
3 70.0 121.6 # CM CM CZ

Dihedral Coeffs # opls

1 0.0 0.0 0.0 0.0 # CZ CM CZ NZ
2 0.0 0.0 0.0 0.0 # CM CM CZ NZ
3 0.0 14.0 0.0 0.0 # CZ CM CM CZ

Atoms

1 1 2 -0.091672 9.89848042 4.67939997 10.1755486 # C1
2 1 1 0.404798 10.5382786 5.93838882 9.97449017 # C2
3 1 3 -0.358962 11.0325813 6.98071003 9.83866215 # N1
4 1 1 0.404798 10.2558756 3.88599300 11.3065662 # C3
5 1 3 -0.358962 10.5469093 3.23839402 12.2263451 # N2
6 1 2 -0.091672 8.93769169 4.24665403 9.31315231 # C1B
7 1 1 0.404798 8.28117561 2.99277997 9.50066090 # C2B
8 1 1 0.404798 8.54854202 5.02330923 8.17971420 # C3B
9 1 3 -0.358962 7.74706507 1.96878397 9.62571621 # N1B
10 1 3 -0.358962 8.23115158 5.63839579 7.24663210 # N2B
11 2 2 -0.091672 0.702820003 1.25960004 5.08424902 # C1
12 2 1 0.404798 6.30209967E-02 6.10999996E-04 4.88319016 # C2
13 2 3 -0.358962 -0.431281000 -1.04171002 4.74736214 # N1
14 2 1 0.404798 0.345423996 2.05300689 6.21526623 # C3
15 2 3 -0.358962 5.43910004E-02 2.70060611 7.13504505 # N2
16 2 2 -0.091672 1.66360795 1.69234598 4.22185183 # C1B
17 2 1 0.404798 2.32012391 2.94621992 4.40936089 # C2B
18 2 1 0.404798 2.05275798 0.915691018 3.08841395 # C3B
19 2 3 -0.358962 2.85423493 3.97021604 4.53441620 # N1B
20 2 3 -0.358962 2.37014794 0.300603986 2.15533209 # N2B
21 3 2 -0.091672 6.00346994 4.67939997 5.08424902 # C1
22 3 1 0.404798 5.36367083 5.93838882 4.88319016 # C2
23 3 3 -0.358962 4.86936903 6.98071003 4.74736214 # N1
24 3 1 0.404798 5.64607382 3.88599300 6.21526623 # C3
25 3 3 -0.358962 5.35504103 3.23839402 7.13504505 # N2
26 3 2 -0.091672 6.96425819 4.24665403 4.22185183 # C1B
27 3 1 0.404798 7.62077379 2.99277997 4.40936089 # C2B
28 3 1 0.404798 7.35340786 5.02330923 3.08841395 # C3B
29 3 3 -0.358962 8.15488529 1.96878397 4.53441620 # N1B
30 3 3 -0.358962 7.67079782 5.63839579 2.15533209 # N2B
31 4 2 -0.091672 4.59782982 1.25960004 10.1755486 # C1
32 4 1 0.404798 5.23762894 6.10999996E-04 9.97449017 # C2
33 4 3 -0.358962 5.73193121 -1.04171002 9.83866215 # N1
34 4 1 0.404798 4.95522594 2.05300689 11.3065662 # C3
35 4 3 -0.358962 5.24625921 2.70060611 12.2263451 # N2
36 4 2 -0.091672 3.63704205 1.69234598 9.31315231 # C1B
37 4 1 0.404798 2.98052597 2.94621992 9.50066090 # C2B
38 4 1 0.404798 3.24789190 0.915691018 8.17971420 # C3B
39 4 3 -0.358962 2.44641495 3.97021604 9.62571621 # N1B
40 4 3 -0.358962 2.93050194 0.300603986 7.24663210 # N2B

Bonds

1 2 1 2 # C1 C2
2 2 1 4 # C1 C3
3 3 1 6 # C1 C1B
4 1 2 3 # C2 N1
5 1 4 5 # C3 N2
6 2 6 7 # C1B C2B
7 2 6 8 # C1B C3B
8 1 7 9 # C2B N1B
9 1 8 10 # C3B N2B
10 2 11 12 # C1 C2
11 2 11 14 # C1 C3
12 3 11 16 # C1 C1B
13 1 12 13 # C2 N1
14 1 14 15 # C3 N2
15 2 16 17 # C1B C2B
16 2 16 18 # C1B C3B
17 1 17 19 # C2B N1B
18 1 18 20 # C3B N2B
19 2 21 22 # C1 C2
20 2 21 24 # C1 C3
21 3 21 26 # C1 C1B
22 1 22 23 # C2 N1
23 1 24 25 # C3 N2
24 2 26 27 # C1B C2B
25 2 26 28 # C1B C3B
26 1 27 29 # C2B N1B
27 1 28 30 # C3B N2B
28 2 31 32 # C1 C2
29 2 31 34 # C1 C3
30 3 31 36 # C1 C1B
31 1 32 33 # C2 N1
32 1 34 35 # C3 N2
33 2 36 37 # C1B C2B
34 2 36 38 # C1B C3B
35 1 37 39 # C2B N1B
36 1 38 40 # C3B N2B

Angles

1 2 2 1 4 # C2 C1 C3
2 3 2 1 6 # C2 C1 C1B
3 3 4 1 6 # C3 C1 C1B
4 1 1 2 3 # C1 C2 N1
5 1 1 4 5 # C1 C3 N2
6 3 1 6 7 # C1 C1B C2B
7 3 1 6 8 # C1 C1B C3B
8 2 7 6 8 # C2B C1B C3B
9 1 6 7 9 # C1B C2B N1B
10 1 6 8 10 # C1B C3B N2B
11 2 12 11 14 # C2 C1 C3
12 3 12 11 16 # C2 C1 C1B
13 3 14 11 16 # C3 C1 C1B
14 1 11 12 13 # C1 C2 N1
15 1 11 14 15 # C1 C3 N2
16 3 11 16 17 # C1 C1B C2B
17 3 11 16 18 # C1 C1B C3B
18 2 17 16 18 # C2B C1B C3B
19 1 16 17 19 # C1B C2B N1B
20 1 16 18 20 # C1B C3B N2B
21 2 22 21 24 # C2 C1 C3
22 3 22 21 26 # C2 C1 C1B
23 3 24 21 26 # C3 C1 C1B
24 1 21 22 23 # C1 C2 N1
25 1 21 24 25 # C1 C3 N2
26 3 21 26 27 # C1 C1B C2B
27 3 21 26 28 # C1 C1B C3B
28 2 27 26 28 # C2B C1B C3B
29 1 26 27 29 # C1B C2B N1B
30 1 26 28 30 # C1B C3B N2B
31 2 32 31 34 # C2 C1 C3
32 3 32 31 36 # C2 C1 C1B
33 3 34 31 36 # C3 C1 C1B
34 1 31 32 33 # C1 C2 N1
35 1 31 34 35 # C1 C3 N2
36 3 31 36 37 # C1 C1B C2B
37 3 31 36 38 # C1 C1B C3B
38 2 37 36 38 # C2B C1B C3B
39 1 36 37 39 # C1B C2B N1B
40 1 36 38 40 # C1B C3B N2B

Dihedrals

1 1 4 1 2 3 # C3 C1 C2 N1
2 2 6 1 2 3 # C1B C1 C2 N1
3 1 2 1 4 5 # C2 C1 C3 N2
4 2 6 1 4 5 # C1B C1 C3 N2
5 3 2 1 6 7 # C2 C1 C1B C2B
6 3 4 1 6 7 # C3 C1 C1B C2B
7 3 2 1 6 8 # C2 C1 C1B C3B
8 3 4 1 6 8 # C3 C1 C1B C3B
9 2 1 6 7 9 # C1 C1B C2B N1B
10 1 8 6 7 9 # C3B C1B C2B N1B
11 2 1 6 8 10 # C1 C1B C3B N2B
12 1 7 6 8 10 # C2B C1B C3B N2B
13 1 14 11 12 13 # C3 C1 C2 N1
14 2 16 11 12 13 # C1B C1 C2 N1
15 1 12 11 14 15 # C2 C1 C3 N2
16 2 16 11 14 15 # C1B C1 C3 N2
17 3 12 11 16 17 # C2 C1 C1B C2B
18 3 14 11 16 17 # C3 C1 C1B C2B
19 3 12 11 16 18 # C2 C1 C1B C3B
20 3 14 11 16 18 # C3 C1 C1B C3B
21 2 11 16 17 19 # C1 C1B C2B N1B
22 1 18 16 17 19 # C3B C1B C2B N1B
23 2 11 16 18 20 # C1 C1B C3B N2B
24 1 17 16 18 20 # C2B C1B C3B N2B
25 1 24 21 22 23 # C3 C1 C2 N1
26 2 26 21 22 23 # C1B C1 C2 N1
27 1 22 21 24 25 # C2 C1 C3 N2
28 2 26 21 24 25 # C1B C1 C3 N2
29 3 22 21 26 27 # C2 C1 C1B C2B
30 3 24 21 26 27 # C3 C1 C1B C2B
31 3 22 21 26 28 # C2 C1 C1B C3B
32 3 24 21 26 28 # C3 C1 C1B C3B
33 2 21 26 27 29 # C1 C1B C2B N1B
34 1 28 26 27 29 # C3B C1B C2B N1B
35 2 21 26 28 30 # C1 C1B C3B N2B
36 1 27 26 28 30 # C2B C1B C3B N2B
37 1 34 31 32 33 # C3 C1 C2 N1
38 2 36 31 32 33 # C1B C1 C2 N1
39 1 32 31 34 35 # C2 C1 C3 N2
40 2 36 31 34 35 # C1B C1 C3 N2
41 3 32 31 36 37 # C2 C1 C1B C2B
42 3 34 31 36 37 # C3 C1 C1B C2B
43 3 32 31 36 38 # C2 C1 C1B C3B
44 3 34 31 36 38 # C3 C1 C1B C3B
45 2 31 36 37 39 # C1 C1B C2B N1B
46 1 38 36 37 39 # C3B C1B C2B N1B
47 2 31 36 38 40 # C1 C1B C3B N2B
48 1 37 36 38 40 # C2B C1B C3B N2B
