LAMMPS data file via write_data, version 29 Sep 2021, timestep = 1000000

1800 atoms
10 atom types
1620 bonds
9 bond types
1800 angles
10 angle types
2160 dihedrals
12 dihedral types

0 32.6128 xlo xhi
0 29.5228 ylo yhi
0 32.2408 zlo zhi
1.80775012609337e-15 1.9741796260975e-15 1.9741796260975e-15 xy xz yz

Masses

1 12.01
2 12.01
3 12.01
4 12.01
5 12.01
6 12.01
7 14.01
8 14.01
9 14.01
10 14.01

Pair Coeffs # lj/cut/coul/long

1 0.076 3.55
2 0.076 3.55
3 0.066 3.3
4 0.066 3.3
5 0.066 3.3
6 0.066 3.3
7 0.17 3.2
8 0.17 3.2
9 0.17 3.2
10 0.17 3.2

Bond Coeffs # harmonic

1 400 1.426
2 400 1.426
3 400 1.426
4 400 1.426
5 549 1.34
6 650 1.16
7 650 1.16
8 650 1.16
9 650 1.16

Angle Coeffs # harmonic

1 70 116.8
2 70 116.8
3 70 121.6
4 70 121.6
5 70 121.6
6 70 121.6
7 70 178.9
8 70 178.9
9 70 178.9
10 70 178.9

Dihedral Coeffs # opls

1 0 0 0 0
2 0 0 0 0
3 0 0 0 0
4 0 0 0 0
5 0 0 0 0
6 0 0 0 0
7 0 0 0 0
8 0 0 0 0
9 0 14 0 0
10 0 14 0 0
11 0 14 0 0
12 0 14 0 0

Atoms # full

16 2 2 -0.091672 6.796516221536218 4.467581664686138 9.729420099274188 0 0 0
1429 143 9 -0.358962 2.819594373459676 10.473810479165847 0.16618834716668127 1 0 1
582 59 3 0.404798 0.32601298284516156 2.97907110662587 10.196188366077765 1 1 0
101 11 1 -0.091672 1.1458347711989951 7.7295893906765825 10.477084920386412 1 0 0
140 14 10 -0.358962 7.605025284498688 8.882854482402958 7.529024354687756 0 0 0
1359 136 9 -0.358962 7.62534988416966 12.918397525344608 4.891167003815698 0 0 1
12 2 3 0.404798 5.204615296408046 2.6742549397175 10.36851720516744 0 0 0
109 11 9 -0.358962 3.06112130031613 4.910883998682673 9.454831611383872 1 0 0
252 26 3 0.404798 5.560696579242554 14.492950188361933 10.628798656974306 0 0 0
1763 177 7 -0.358962 6.190715327006438 3.5120257676999236 4.897403808842628 1 1 1
132 14 3 0.404798 5.271843722160372 8.530939034041927 10.533523176379976 0 0 0
18 2 6 0.404798 7.110504752054491 3.8411695228840603 8.451730889377094 0 0 0
1408 141 6 0.404798 3.154563334155466 13.936241423352003 3.0162791516901035 1 0 1
108 11 6 0.404798 2.018242446558126 7.983101621484753 8.291444306772332 1 0 0
110 11 10 -0.358962 2.166708975612995 8.522149080539283 7.271658574102492 1 0 0
1215 122 8 -0.358962 5.659398083004106 5.260343530689912 2.179345419708152 0 0 1
106 11 2 -0.091672 1.9736960198531988 7.299819916031702 9.482631295681923 1 0 0
228 23 6 0.404798 1.8190270161344473 13.530501516710972 8.688901811296367 1 0 0
1214 122 4 0.404798 5.918023584907785 4.747330402177863 1.1441677556838 0 0 1
17 2 5 0.404798 7.4259760191020785 5.71321753100264 9.958542752078488 0 0 0
1283 129 7 -0.358962 5.731312017705258 9.886002314547735 4.664429824880666 1 0 1
1313 132 7 -0.358962 0.32553958379446307 1.8403321025602823 5.437222111732807 1 0 1
136 14 2 -0.091672 6.85678198817186 10.160125957518519 9.602205405557658 0 0 0
586 59 2 -0.091672 1.701962653756258 1.0636062366275907 9.765894359198631 1 1 0
253 26 7 -0.358962 4.9323596621361485 13.49013817941764 10.47839522751782 0 0 0
588 59 6 0.404798 2.138593329682764 1.5646122760876382 8.502199006205663 1 1 0
590 59 10 -0.358962 2.575115235118635 1.9096743328523227 7.52017059037059 1 1 0
1289 129 9 -0.358962 2.9330901958774604 4.537651900580532 4.655408680107397 1 0 1
1409 141 9 -0.358962 2.469157719146669 10.616397551219658 3.8289793754080828 1 0 1
1288 129 6 0.404798 3.4727156450266747 7.4625082357265065 2.903529902126864 1 0 1
1290 129 10 -0.358962 3.21546945367525 7.892544531919497 1.8939136232063216 1 0 1
227 23 5 0.404798 2.2738545093703006 11.744651695177375 10.299135434834724 1 0 0
1433 144 7 -0.358962 0.7766372943751398 7.833222007724138 4.572248182842685 1 0 1
1768 177 6 0.404798 3.865307394020181 1.3116207870355763 3.2918760979250417 1 1 1
1770 177 10 -0.358962 3.5798593271883594 2.0140949919654187 2.362644586354869 1 1 1
1281 129 1 -0.091672 4.745716652530453 7.468459762176055 4.9307845556832826 1 0 1
1282 129 3 0.404798 5.241808514962454 8.852048544746056 4.8208448962211135 1 0 1
1284 129 4 0.404798 5.204486366847131 6.7359462906130005 6.052515300021872 1 0 1
1286 129 2 -0.091672 3.86609156316081 6.949561541478367 4.116047895160435 1 0 1
1287 129 5 0.404798 3.3403138759248217 5.603503301709823 4.448561297149931 1 0 1
1401 141 1 -0.091672 4.409827774745269 13.253083845024559 4.972098146206718 1 0 1
1764 177 4 0.404798 5.355935662182094 0.4925608232170009 6.542332165105359 1 1 1
1404 141 4 0.404798 4.750276531014901 12.300781154301664 5.980827552332828 1 0 1
1406 141 2 -0.091672 3.4855045274839584 12.983905241865957 4.067522994587295 1 0 1
1407 141 5 0.404798 2.8304798996240774 11.715393085018725 4.0269865101364575 1 0 1
1761 177 1 -0.091672 5.023393336715505 1.1867929283530045 5.3066734724137685 1 1 1
1762 177 3 0.404798 5.633676942044517 2.4928597621534947 5.042533879450536 1 1 1
226 23 2 -0.091672 1.5562742494838546 13.004239673217363 10.051234286173605 1 0 0
1766 177 2 -0.091672 4.1705339388502365 0.6434427253532512 4.47786720278052 1 1 1
1784 179 4 0.404798 0.9467774670370919 0.232480469114177 1.2779514770189087 1 1 1
1335 134 8 -0.358962 5.41412625487127 11.225867894090129 1.789816052033337 0 0 1
137 14 5 0.404798 7.637923416409714 11.380240899798704 9.663506086392859 0 0 0
229 23 9 -0.358962 2.828441775688137 10.766737995249208 10.614633596728321 1 0 0
1285 129 8 -0.358962 5.471885252271564 6.227194436341558 7.066655491142639 1 0 1
1405 141 8 -0.358962 4.970913657562875 11.576100873650551 6.833182282416496 1 0 1
1334 134 4 0.404798 5.9138695365920455 10.61853514067104 0.916859821062267 0 0 1
102 11 3 0.404798 0.3752644613160059 8.947116290193998 10.37115482077759 1 0 0
1553 156 7 -0.358962 0.4748835548427784 14.005261735478916 5.062533464325975 1 0 1
1765 177 8 -0.358962 5.705569612605103 0.03771881008166401 7.614290101543112 1 1 1
1304 131 4 0.404798 0.16636599917386616 6.788095775791673 0.8505648549609478 1 0 1
11 2 1 -0.091672 5.8899316808872975 3.926519904775761 10.56527937949922 0 0 0
1781 179 1 -0.091672 0.9607960342476682 1.0721914865131306 0.0821929590077051 1 1 1
13 2 7 -0.358962 4.629838193184215 1.686426281801117 10.258142803085947 0 0 0
107 11 5 0.404798 2.6240396448515138 6.011580233612272 9.496447092918308 1 0 0
138 14 6 0.404798 7.237347363971596 9.41402702899058 8.461338748676875 0 0 0
133 14 7 -0.358962 4.790051112815595 7.492213197006467 10.404822352016433 0 0 0
131 14 1 -0.091672 5.9164762043748444 9.799481023269708 10.495226675274465 0 0 0
230 23 10 -0.358962 2.0585560682247417 13.945567938363613 7.659166072838245 1 0 0
19 2 9 -0.358962 8.001911221842889 6.698049636815114 10.268865469061536 0 0 0
1315 132 8 -0.358962 0.03819062903754789 5.974455766995879 7.017074028134705 1 0 1
1402 141 3 0.404798 5.0246684414297995 14.55539079782012 4.893538176457309 1 0 1
1435 144 8 -0.358962 0.34397177402062734 11.167210338436924 7.32007649046889 1 0 1
1432 144 3 0.404798 0.29981101469520643 8.892163161778662 4.752559786816491 1 0 1
20 2 10 -0.358962 7.358778106905502 3.2486417702146864 7.433473846756752 0 0 0
1782 179 3 0.404798 0.1414393473814308 2.2025896004312724 0.07256410684335741 1 1 1
1424 143 4 0.404798 0.2152644830560054 12.764869758656003 1.0721533520951376 1 0 1
499 50 9 -0.358962 7.974760759678246 1.449305132711299 10.586012240779011 0 1 0
1239 124 9 -0.358962 7.9548580928102215 6.867355163435051 4.6957140423133366 0 0 1
497 50 5 0.404798 7.677665115091199 0.32265576044768374 10.44267290672564 0 1 0
581 59 1 -0.091672 0.8127016904351155 1.6771769345263967 10.566628820356764 1 1 0
585 59 8 -0.358962 0.015320151903568103 0.7254716581732068 12.822526669838503 1 1 0
732 74 3 0.404798 5.394000337711085 8.98750284517925 20.91759524317668 0 0 0
733 74 7 -0.358962 5.0994849207945006 7.8764473476303865 20.720568715729463 0 0 0
709 71 9 -0.358962 2.8850715457318032 5.078282379007409 20.709727040178738 1 0 0
113 12 7 -0.358962 0.6937681692888599 1.8217696252058764 15.748103318938364 1 0 0
706 71 2 -0.091672 1.6760317552334705 7.4118218515706635 20.545072872538913 1 0 0
104 11 4 0.404798 0.9822617274261873 6.943019846512227 11.668786610623393 1 0 0
736 74 2 -0.091672 6.972594687467764 10.832435938961781 20.528604284404928 0 0 0
14 2 4 0.404798 5.607627367667528 4.590569193609821 11.767574679291078 0 0 0
39 4 9 -0.358962 7.509580853073549 6.615208002177659 15.320475222988184 0 0 0
353 36 7 -0.358962 0.47942611082431996 13.61195440627189 16.16834061008212 1 0 0
740 74 10 -0.358962 7.926887049468088 9.756855926717446 18.4143650276486 0 0 0
208 21 6 0.404798 3.4014673063766634 13.799611447900256 14.106269456723725 1 0 0
708 71 6 0.404798 1.8959174041078026 8.213605228440843 19.37630837241876 1 0 0
710 71 10 -0.358962 2.1639146977775936 8.928935771608307 18.53863459935334 1 0 0
828 83 6 0.404798 1.8730532663943413 13.656138320778794 19.36586456604688 1 0 0
15 2 8 -0.358962 5.401255416952434 5.222729476383699 12.70939380623095 0 0 0
37 4 5 0.404798 8.114554210537564 5.639703480362538 15.262823903686844 0 0 0
613 62 7 -0.358962 4.930624825559149 2.1839097232707596 21.27522327105643 0 0 0
134 14 4 0.404798 5.623263778525747 10.665176799023973 11.575455137865244 0 0 0
829 83 9 -0.358962 2.8190409564491943 10.980151101755434 20.878259492076086 1 0 0
210 21 10 -0.358962 3.3732738065055687 14.30621768016866 13.091175923301279 1 0 0
612 62 3 0.404798 5.39185169802606 3.2215146890693918 21.338334858512624 0 0 0
1186 119 2 -0.091672 1.914397273175809 1.0489449136868236 20.991781079680116 1 1 0
225 23 8 -0.358962 0.4128753423888456 12.545744060712215 13.232008568728611 1 0 0
1188 119 6 0.404798 2.0865312159230784 1.7319456264405102 19.70783781780311 1 1 0
1190 119 10 -0.358962 2.2937474303908507 2.2372010398011084 18.66667630931478 1 1 0
89 9 9 -0.358962 2.297883350762452 4.958705261840753 15.392550102646174 1 0 0
209 21 9 -0.358962 2.469932307853482 10.713228272879151 15.533310789088832 1 0 0
88 9 6 0.404798 3.7306227132812744 7.753781335575316 13.953184668342143 1 0 0
90 9 10 -0.358962 3.7647559557326997 8.362730183945038 12.979154542932584 1 0 0
618 62 6 0.404798 7.315564358614331 4.04067816848052 19.465434493892857 0 0 0
737 74 5 0.404798 7.70283416990141 12.007328442997348 20.981630137289496 0 0 0
568 57 6 0.404798 3.1878905952473615 1.9965783965713089 14.321867781270324 1 1 0
570 57 10 -0.358962 2.840975542935005 2.6307499982876767 13.399273980119194 1 1 0
81 9 1 -0.091672 4.409361372861439 7.4947922858390035 16.170684298024206 1 0 0
82 9 3 0.404798 5.031652671949718 8.834361271568927 16.180264676097437 1 0 0
84 9 4 0.404798 4.473430068555954 6.879151593675894 17.454626305608695 1 0 0
86 9 2 -0.091672 3.6309302396217924 7.081683091837038 15.11944705251573 1 0 0
87 9 5 0.404798 2.920368515670252 5.905398275836804 15.21829961507983 1 0 0
201 21 1 -0.091672 4.449643771983423 13.601885581420332 16.31398203331153 1 0 0
826 83 2 -0.091672 1.2063089456142861 13.02142575953504 20.41248868114179 1 0 0
204 21 4 0.404798 4.843166664388319 12.94405587655069 17.460305485973574 1 0 0
206 21 2 -0.091672 3.5028468808274913 13.160312966373695 15.40289097558185 1 0 0
207 21 5 0.404798 2.978866462707254 11.811369690177532 15.528619516144804 1 0 0
561 57 1 -0.091672 4.419195639803399 1.7585242106300785 16.35351935173755 1 1 0
562 57 3 0.404798 5.024453313095737 3.0265724894923305 16.134985092997237 1 1 0
564 57 4 0.404798 4.879273625362291 1.058842258563706 17.536664916378278 1 1 0
566 57 2 -0.091672 3.5457307429463656 1.229905302867377 15.458230621858283 1 1 0
731 74 1 -0.091672 5.997939945691059 10.259742343120221 21.269846161765194 0 0 0
224 23 4 0.404798 0.6206701441550163 13.068964432209645 12.223205059085517 1 0 0
616 62 2 -0.091672 7.051370185747852 4.848174224327436 20.633038278825293 0 0 0
135 14 8 -0.358962 5.459309121986653 11.41240635173654 12.441712323018683 0 0 0
85 9 8 -0.358962 4.697998926915973 6.302125762166767 18.42793478310478 1 0 0
205 21 8 -0.358962 5.255792781226232 12.394271845449996 18.39061049574508 1 0 0
563 57 7 -0.358962 5.579490433098444 4.046131749645074 15.967203806641377 1 1 0
83 9 7 -0.358962 5.493606177149455 9.852187621181526 16.087516074787573 1 0 0
567 57 5 0.404798 2.7901234812612863 0.018599534521300115 15.751989068042176 1 1 0
105 11 8 -0.358962 0.7846876863625304 6.156276332837557 12.49910583274591 1 0 0
707 71 5 0.404798 2.4158917749545044 6.124555733772771 20.55653181235868 1 0 0
738 74 6 0.404798 7.450453009298007 10.17502959005493 19.368481853872083 0 0 0
617 62 5 0.404798 7.724364916237968 6.097510164882327 20.844476548616974 0 0 0
233 24 7 -0.358962 0.5289535548288474 7.503339676006692 16.004932354580948 1 0 0
827 83 5 0.404798 2.0670730731855094 11.835374656150691 20.739775608295243 1 0 0
830 83 10 -0.358962 2.468120721800965 14.224567854861412 18.543297872388358 1 0 0
565 57 8 -0.358962 5.231809313790722 0.49984109752726513 18.497565937806872 1 1 0
352 36 3 0.404798 0.06893405904117753 14.686472508468915 16.203605353556433 1 0 0
112 12 3 0.404798 0.0581879650363443 2.826810565928554 15.914218634713762 1 0 0
159 16 9 -0.358962 7.717111516983326 12.749434139009107 15.619926296787858 0 0 0
584 59 4 0.404798 0.4606407662519263 1.14053536420705 11.906251424979997 1 1 0
620 62 10 -0.358962 7.440130742605301 3.3635411062475504 18.535959993906292 0 0 0
821 83 1 -0.091672 0.402732589018148 13.569641286789144 21.302763650346975 1 0 0
221 23 1 -0.091672 0.8041825345027617 13.660570264616869 10.982075058833138 1 0 0
519 52 9 -0.358962 7.883698255368008 1.4072977913235587 14.750184491961454 0 1 0
853 86 7 -0.358962 4.939212092366847 14.352466304730608 21.326299541621065 0 0 0
702 71 3 0.404798 0.03723201258303971 8.99786111189592 21.236856736716007 1 0 0
160 16 10 -0.358962 8.123960553416449 9.341322300670397 13.016962148388412 0 0 0
701 71 1 -0.091672 0.8252043346006799 7.797632310579592 21.490628602589 1 0 0
824 83 4 0.404798 0.18251966296632424 12.835717145223041 22.5433125354397 1 0 0
1181 119 1 -0.091672 0.9352170120088421 1.4827838450082038 21.840762419479624 1 1 0
1337 134 5 0.404798 7.975482212792708 11.586672076873953 31.375217654050175 0 0 0
1306 131 2 -0.091672 1.8266338988295638 7.238380118384106 31.351326153367157 1 0 0
1426 143 2 -0.091672 1.8424180103871142 12.722289614298997 31.48218175756414 1 0 0
734 74 4 0.404798 5.496212073275319 10.808446610463074 22.450573923941707 0 0 0
1163 117 7 -0.358962 6.024196873598853 4.087082275243776 26.20574991083451 1 1 0
1786 179 2 -0.091672 1.8064946530694894 0.8346801865405872 31.24690490405275 1 1 0
611 62 1 -0.091672 6.147041418722223 4.433277699666979 21.551694209179043 0 0 0
1164 117 4 0.404798 5.351051125494278 1.020245265359217 27.941914788705247 1 1 0
704 71 4 0.404798 0.6297391160005733 7.130549976074887 22.65672256212625 1 0 0
1211 122 1 -0.091672 6.270956135548053 4.023283908964549 32.13645230777317 0 0 0
1165 117 8 -0.358962 5.589181670473353 0.477171525913506 28.94455040014906 1 1 0
1308 131 6 0.404798 2.482214146633248 8.033213132837105 30.35972389197307 1 0 0
1310 131 10 -0.358962 3.08531935965867 8.63861530236096 29.598158594577487 1 0 0
808 81 6 0.404798 3.196020671539911 14.053807637836446 24.500267503217 1 0 0
615 62 8 -0.358962 5.66029978505662 6.067730897499069 23.48441525055262 0 0 0
1333 134 7 -0.358962 5.24398247198698 7.614217510864904 31.892820070928884 0 0 0
1697 170 5 0.404798 7.852949540602887 0.019896004748421545 31.476229720762145 0 1 0
1428 143 6 0.404798 2.298718067965522 13.326385456951506 30.234770522597966 1 0 0
1307 131 5 0.404798 2.5038118886431224 6.026783677190918 31.6534468068578 1 0 0
683 69 7 -0.358962 6.263861942590423 9.609737776959449 26.349728363654467 1 0 0
1336 134 2 -0.091672 7.444672951357374 10.251606300143303 31.255778321048272 0 0 0
1167 117 5 0.404798 3.001433467721335 0.27108898575654494 26.65505850198534 1 1 0
614 62 4 0.404798 5.819004809726455 5.351438959504914 22.645354794911814 0 0 0
1788 179 6 0.404798 1.97480905269299 1.6992693672914019 30.16689712173011 1 1 0
1790 179 10 -0.358962 2.295666552217919 2.319453139975219 29.26177536744293 1 1 0
689 69 9 -0.358962 2.1131021447368092 5.233672486092389 26.266444283807097 1 0 0
809 81 9 -0.358962 2.307649721968531 10.776519176087367 25.64381602876532 1 0 0
688 69 6 0.404798 3.461933474988995 7.941127550704703 24.623726282561353 1 0 0
690 69 10 -0.358962 3.283056013760537 8.439095205090219 23.581661352835628 1 0 0
1182 119 3 0.404798 0.3533775150310627 2.7248365346415127 21.575652791158987 1 1 0
1218 122 6 0.404798 7.281952927620084 4.054217302607712 29.93155556472058 0 0 0
1168 117 6 0.404798 3.4039465184647053 2.0249428531763667 24.89321712684432 1 1 0
1170 117 10 -0.358962 3.079388264959178 2.4609711484736008 23.891474596023677 1 1 0
681 69 1 -0.091672 4.580369448658562 7.641047786935037 26.71089955829143 1 0 0
682 69 3 0.404798 5.516101293473422 8.745803082536083 26.567159137885586 1 0 0
684 69 4 0.404798 4.723994439514936 6.82146049734385 27.877682764630087 1 0 0
686 69 2 -0.091672 3.637110259659057 7.326715230968135 25.830940311001253 1 0 0
687 69 5 0.404798 2.768315089172033 6.185024549302918 25.98279951766286 1 0 0
801 81 1 -0.091672 4.37708059222606 13.486983969222873 26.55022239949537 1 0 0
810 81 10 -0.358962 3.0231375098479 14.681305167691272 23.534760600054106 1 0 0
804 81 4 0.404798 4.767278234464701 12.508251692318128 27.53902519661979 1 0 0
806 81 2 -0.091672 3.475809568661502 13.160614175146906 25.59483858493482 1 0 0
807 81 5 0.404798 2.8496516666188416 11.863051088388277 25.593688341713317 1 0 0
1161 117 1 -0.091672 4.935191561882631 1.7180715334960979 26.690852507050455 1 1 0
1162 117 3 0.404798 5.559386683932912 2.994446907359258 26.42910647247949 1 1 0
639 64 9 -0.358962 7.869604991386819 6.750456979989337 26.46510252352145 0 0 0
1166 117 2 -0.091672 3.8146116179006175 1.337201724181697 26.09139416382795 1 1 0
1217 122 5 0.404798 7.885589594131822 5.685354090024305 31.48866395914942 0 0 0
713 72 7 -0.358962 0.19645353080167044 2.234727492624422 26.72898807425068 1 0 0
1309 131 9 -0.358962 2.891694300496994 4.974136782652922 31.862747821157413 1 0 0
832 84 3 0.404798 0.02259496574348299 8.87632276958756 26.82129320668955 1 0 0
685 69 8 -0.358962 4.840344855021091 6.053550075739837 28.745506641614565 1 0 0
805 81 8 -0.358962 4.989532708011703 11.67256760031407 28.291680206689083 1 0 0
705 71 8 -0.358962 0.49490955873950704 6.5560878788338925 23.6486874153361 1 0 0
1338 134 6 0.404798 8.005651130970415 9.448963293589856 30.17964448885975 0 0 0
1216 122 2 -0.091672 7.119176636916616 4.563691650628683 31.215655371418162 0 0 0
735 74 8 -0.358962 5.12900548209572 11.270411435507576 23.46109482623262 0 0 0
833 84 7 -0.358962 0.6056252661701242 7.893334171654422 26.726002320755235 1 0 0
1212 122 3 0.404798 5.524809119995765 2.9030571874946465 31.774187884542197 0 0 0
1213 122 7 -0.358962 4.925672087320814 2.050748459537897 31.418553173975955 0 0 0
1427 143 5 0.404798 2.4456882142176646 11.521272954431272 31.97624856665461 1 0 0
825 83 8 -0.358962 0.01771330868919829 12.157313866069373 23.46412702414508 1 0 0
1220 122 10 -0.358962 7.375156690472004 3.534868980167891 28.88610256284884 0 0 0
1430 143 10 -0.358962 2.778213063031901 13.924299373129136 29.322865401413168 1 0 0
1184 119 4 0.404798 0.5323629338708322 0.7447537559072559 22.94993203207612 1 1 0
1119 112 9 -0.358962 7.975951756674061 1.434156844684141 26.278590763088435 0 1 0
802 81 3 0.404798 5.174936804917396 14.604165043971657 26.42261757090016 1 0 0
1422 143 3 0.404798 0.17992458495764344 14.490034322265755 31.61800353910444 1 0 0
1332 134 3 0.404798 5.8297555231616895 8.5618026246204 31.97209989955762 0 0 0
1331 134 1 -0.091672 6.436378474371767 9.833112266916425 32.06551236684482 0 0 0
1421 143 1 -0.091672 0.7812801902749078 13.314143211585368 32.12415013626629 1 0 0
1301 131 1 -0.091672 0.664658565861828 7.589300184608377 32.02118269062679 1 0 0
1185 119 8 -0.358962 0.2150018339868057 0.19899838205851783 23.916641095576715 1 1 0
759 76 9 -0.358962 7.850727518673877 12.463341564198622 26.898825761852056 0 0 0
1453 146 7 -0.358962 4.878742906418638 13.930483259292654 32.14935829794105 0 0 0
469 47 9 -0.358962 2.8805523951276424 22.02835421879104 9.72923256132061 1 0 0
1793 180 7 -0.358962 0.35693301063812777 25.46737469398863 5.144689479205818 1 0 1
1795 180 8 -0.358962 0.08008971058670683 28.815596529305367 7.709054760289335 1 0 1
376 38 2 -0.091672 7.050853209810737 22.304485427272393 10.094428143948413 0 0 0
1695 170 8 -0.358962 6.105868812836854 28.774554975173498 2.4087529924899482 0 0 1
1769 177 9 -0.358962 2.8799473816200702 27.91626283755141 5.071734213125673 1 0 1
1767 177 5 0.404798 3.504091205222318 28.90392195183944 4.750450646640853 1 0 1
1479 148 9 -0.358962 8.003861203929928 18.858189979664257 5.771689616163759 0 0 1
1694 170 4 0.404798 6.2579050339584805 28.40652593710317 1.3555558942081507 0 0 1
466 47 2 -0.091672 1.789949155244484 24.275017862061855 10.20022463866648 1 0 0
348 35 6 0.404798 1.924249584585461 19.189240336384515 8.702068633140135 1 0 0
350 35 10 -0.358962 2.278855349846673 19.713945099229175 7.7408109373536425 1 0 0
467 47 5 0.404798 2.331807932215789 23.024248399539527 9.975302318753377 1 0 0
1410 141 10 -0.358962 2.8292135649538817 14.8347478913358 2.3088185112360504 1 0 1
1571 158 1 -0.091672 6.180907497802673 21.85569349105289 0.07410590189995604 0 0 1
258 26 6 0.404798 7.55160639006376 15.299029557895562 8.588371608859978 0 0 0
468 47 6 0.404798 2.05943701252603 25.192283840773424 9.124176498070321 1 0 0
470 47 10 -0.358962 2.182452685802523 25.969050481344528 8.231444044653522 1 0 0
1529 153 9 -0.358962 2.257405827822076 17.085751669147726 4.695220469791666 1 0 1
1649 165 9 -0.358962 2.559862239109894 22.524485184621525 5.567510588067627 1 0 1
380 38 10 -0.358962 8.061467619380169 20.864480298555435 8.234379785517952 0 0 0
1528 153 6 0.404798 3.5080110450518713 20.186166174379355 3.6942373076910995 1 0 1
1530 153 10 -0.358962 3.129288903194736 21.036090717772606 2.9642318688019964 1 0 1
1648 165 6 0.404798 3.3191122106787065 25.071165958437447 3.537479260106237 1 0 1
1650 165 10 -0.358962 2.80799256031755 25.552478492825248 2.6466707831080085 1 0 1
1521 153 1 -0.091672 4.753057212693099 19.296105225199813 5.481718865463739 1 0 1
1522 153 3 0.404798 5.569162082873088 20.525952883050827 5.374378521051593 1 0 1
1524 153 4 0.404798 5.14580433374561 18.336779159938587 6.480862956129392 1 0 1
1526 153 2 -0.091672 3.7910933965004943 19.157913729222514 4.59792686751608 1 0 1
1527 153 5 0.404798 2.8974725522712887 18.017292628558494 4.629482814941691 1 0 1
1641 165 1 -0.091672 4.925727539592664 25.02351156348649 5.390592596542838 1 0 1
1642 165 3 0.404798 5.483710021333856 26.297251058874856 5.083872009036592 1 0 1
1644 165 4 0.404798 5.418761228717284 24.429403095063638 6.580297078435647 1 0 1
1646 165 2 -0.091672 3.911189912925158 24.512963935557508 4.73608900687268 1 0 1
1647 165 5 0.404798 3.2117758345481535 23.367133660254762 5.185865117532513 1 0 1
589 59 9 -0.358962 2.9828628258637013 28.489582469073557 10.54640605259822 1 0 0
257 26 5 0.404798 8.00086782180582 17.27765578831734 9.817593891336633 0 0 0
1525 153 8 -0.358962 5.539549842417284 17.590283340576637 7.2787551655735125 1 0 1
1645 165 8 -0.358962 5.5900657189488285 23.925088571918547 7.622511806217626 1 0 1
372 38 3 0.404798 5.480521710811473 20.412287282069475 10.557458389752485 0 0 0
378 38 6 0.404798 7.6379892234752385 21.537812082882446 9.05943859394136 0 0 0
346 35 2 -0.091672 1.5444486991133697 18.583177144563287 9.942024329449213 1 0 0
256 26 2 -0.091672 7.304280214748139 16.009679697664513 9.764516366835569 0 0 0
373 38 7 -0.358962 4.968668588183445 19.362078364197473 10.420060752114317 0 0 0
1454 146 4 0.404798 5.938498860162988 16.925983621724964 1.1011562557621708 0 0 1
1455 146 8 -0.358962 5.7267787586323635 17.707259197460647 1.9458207113273123 0 0 1
1574 158 4 0.404798 5.862621713951102 22.401012146048394 1.412959996153706 0 0 1
1575 158 8 -0.358962 5.604883599551525 22.933262474695862 2.4567766365396815 0 0 1
587 59 5 0.404798 2.4580861541611614 29.42953249453506 10.21436832142817 1 0 0
1673 168 7 -0.358962 0.2693006946069415 19.97796796912687 5.352758590602202 1 0 1
347 35 5 0.404798 2.2851363576853867 17.40193577305027 10.215640504144394 1 0 0
1523 153 7 -0.358962 6.163640160754583 21.524378724219872 5.2767938603574445 1 0 1
1643 165 7 -0.358962 6.018528080592154 27.294995571689075 4.7774650126537495 1 0 1
496 50 2 -0.091672 7.210896475574455 28.51252873151089 10.26183920625324 0 0 0
1544 155 4 0.404798 0.7207671045367948 18.916496099584645 1.129855648074851 1 0 1
1403 141 7 -0.358962 5.410230037248158 15.612165209336712 4.873806671958509 1 0 1
498 50 6 0.404798 7.594093861229829 27.889770575068674 8.947248088305626 0 0 0
1665 167 8 -0.358962 0.1242886318778606 23.99905825498913 1.7832853729804532 1 0 1
1545 155 8 -0.358962 0.6587253027838275 18.713939627538036 2.259806143188485 1 0 1
1664 167 4 0.404798 0.5071395110802561 24.616858476954036 0.8897851123961243 1 0 1
349 35 9 -0.358962 2.840754014601353 16.35376921099825 10.393645355829236 1 0 0
260 26 10 -0.358962 7.784181012270935 14.826382811764152 7.562791236332671 0 0 0
493 50 7 -0.358962 5.288778250279972 25.673209629068523 10.519988030061942 0 0 0
500 50 10 -0.358962 7.850195848241811 27.40037102808107 7.93841630540029 0 0 0
1785 179 8 -0.358962 0.8767801657521774 29.08132883314283 2.1989552880234 1 0 1
377 38 5 0.404798 7.690790926618037 23.53519595161882 10.539655385081925 0 0 0
1691 170 1 -0.091672 6.3765574517448345 27.792184937004958 0.06626139435964512 0 0 1
342 35 3 0.404798 0.21297364954719 20.380067667532728 10.730062894482817 1 0 0
978 98 6 0.404798 7.707531538967383 21.872595542258495 19.51951072138009 0 0 0
399 40 9 -0.358962 7.880353020021169 24.72723510084532 15.772307563057225 0 0 0
462 47 3 0.404798 0.4094980028381566 25.84769866317924 11.359499762798253 1 0 0
491 50 1 -0.091672 6.312501223876874 27.9719524690322 11.094327205815539 0 0 0
202 21 3 0.404798 5.252076709182992 14.80823376661379 16.18817500587923 1 0 0
1187 119 5 0.404798 2.581089917910966 29.374019676227675 21.15820012163586 1 0 0
1097 110 5 0.404798 7.917751405802765 29.476139832566357 20.698324896527236 0 0 0
473 48 7 -0.358962 0.676424973799138 19.808833510821888 15.598191845295345 1 0 0
949 95 9 -0.358962 2.732274427614719 16.44363721697302 21.023279404186578 1 0 0
1100 110 10 -0.358962 7.782036273507808 26.833869721524078 18.361322561577246 0 0 0
948 95 6 0.404798 2.4177034302424407 19.53612094160838 19.96167865244569 1 0 0
950 95 10 -0.358962 2.7942400499310946 20.141862385719424 19.06980960863473 1 0 0
856 86 2 -0.091672 7.202468854774183 16.932277564108304 20.610732986268545 0 0 0
355 36 8 -0.358962 0.22879579954618706 17.217659083418095 18.34297849569464 1 0 0
341 35 1 -0.091672 0.7478909577432454 19.045655473767013 10.903599322553369 1 0 0
495 50 8 -0.358962 5.49655439557257 29.2811785523657 13.155874935969381 0 0 0
1068 107 6 0.404798 2.0196086604683514 25.730949349413855 19.583051875063987 1 0 0
1070 107 10 -0.358962 2.2480163569207066 26.446811207704013 18.694835920208057 1 0 0
329 33 9 -0.358962 2.601424394457024 16.59368089134359 15.305887953469359 1 0 0
449 45 9 -0.358962 2.1530283750717443 22.783595590290396 15.86634212647752 1 0 0
464 47 4 0.404798 0.6366167683340438 23.662136897343135 12.260819168883163 1 0 0
328 33 6 0.404798 3.5059232161487257 19.744053403378267 14.298246298661114 1 0 0
330 33 10 -0.358962 3.313875824953263 20.531183349485683 13.467887318552378 1 0 0
448 45 6 0.404798 2.8768609635946607 25.74934129913135 14.31634331839799 1 0 0
450 45 10 -0.358962 2.5689779095081566 26.34455794840173 13.328574039883136 1 0 0
321 33 1 -0.091672 4.402063099559273 19.143104665466677 16.450006412142642 1 0 0
322 33 3 0.404798 5.200325608049426 20.372830501039182 16.450143399371388 1 0 0
324 33 4 0.404798 4.5514858548229205 18.163411664017787 17.565591684486982 1 0 0
326 33 2 -0.091672 3.7940691679343823 18.81896400439526 15.34752189618331 1 0 0
327 33 5 0.404798 3.16541507961859 17.623576280736806 15.302273187147831 1 0 0
441 45 1 -0.091672 4.277553212005462 25.63968708884186 16.254433454652368 1 0 0
442 45 3 0.404798 5.065553327681233 26.723405363901378 15.782007581822093 1 0 0
444 45 4 0.404798 4.829523182429375 24.961207345586985 17.364102822261923 1 0 0
446 45 2 -0.091672 3.337659701608075 25.04789599039908 15.507349705614514 1 0 0
447 45 5 0.404798 2.686298677716959 23.809897004145245 15.78545316480765 1 0 0
344 35 4 0.404798 0.6158596628429838 18.30518142265435 12.18757760447018 1 0 0
203 21 7 -0.358962 5.890669741804365 15.761334879387082 15.950261156634255 1 0 0
325 33 8 -0.358962 4.524805273140386 17.315910782168174 18.386707673511154 1 0 0
445 45 8 -0.358962 5.3233998733218835 24.534867839991293 18.36690333798571 1 0 0
946 95 2 -0.091672 1.9208858568084544 18.843671651175367 21.06474915102814 1 0 0
1098 110 6 0.404798 7.586833806784697 27.532742467562407 19.302449844153433 0 0 0
976 98 2 -0.091672 7.301714138193834 22.55885676390006 20.71478568258611 0 0 0
1066 107 2 -0.091672 1.7288036358296008 24.85155268859313 20.701798153187433 1 0 0
1067 107 5 0.404798 2.517429230024865 23.610608565988002 20.87693610590915 1 0 0
254 26 4 0.404798 6.141719631734865 16.426541343093685 11.80985067824939 0 0 0
255 26 8 -0.358962 5.968462510965678 17.237924974085853 12.667771577561867 0 0 0
374 38 4 0.404798 5.62808344757581 22.534976472846257 11.893657951087095 0 0 0
375 38 8 -0.358962 5.313213231282776 23.005533141081134 12.901632301157019 0 0 0
494 50 4 0.404798 5.8054160505326555 28.60643744983124 12.237680087177267 0 0 0
569 57 9 -0.358962 2.246583853532436 28.512508279010085 15.951071727367674 1 0 0
1091 110 1 -0.091672 6.187956996025155 27.873478726955152 21.33728706344069 0 0 0
323 33 7 -0.358962 5.905265391057151 21.308720593206342 16.34800753675386 1 0 0
443 45 7 -0.358962 5.657809279157908 27.693688746313768 15.576058438164855 1 0 0
595 60 8 -0.358962 0.33503489781983503 28.915975032277256 18.409132035923975 1 0 0
858 86 6 0.404798 7.268775580085329 16.403917180982795 19.317424090665185 0 0 0
947 95 5 0.404798 2.3371628552321737 17.46800689914172 21.11136310505685 1 0 0