LAMMPS data file via write_data, version 29 Sep 2021, timestep = 5000000

1620 atoms
10 atom types
1458 bonds
9 bond types
1620 angles
10 angle types
1944 dihedrals
12 dihedral types

0 31.303 xlo xhi
0 31.303 ylo yhi
0 31.303 zlo zhi

Masses

1 12.01
2 12.01
3 12.01
4 12.01
5 12.01
6 12.01
7 14.01
8 14.01
9 14.01
10 14.01

Bond Coeffs # harmonic

1 400 1.426
2 400 1.426
3 400 1.426
4 400 1.426
5 549 1.34
6 650 1.16
7 650 1.16
8 650 1.16
9 650 1.16

Angle Coeffs # harmonic

1 70 116.8
2 70 116.8
3 70 121.6
4 70 121.6
5 70 121.6
6 70 121.6
7 70 178.9
8 70 178.9
9 70 178.9
10 70 178.9

Dihedral Coeffs # opls

1 0 0 0 0
2 0 0 0 0
3 0 0 0 0
4 0 0 0 0
5 0 0 0 0
6 0 0 0 0
7 0 0 0 0
8 0 0 0 0
9 0 14 0 0
10 0 14 0 0
11 0 14 0 0
12 0 14 0 0

Atoms # full

1460 146 10 -0.358962 7.220491587170071 7.547398883773372 7.129176807223096 -1 0 -2
1458 146 6 0.404798 7.782132110569506 7.504095527682209 6.115133044821845 -1 0 -2
1438 144 6 0.404798 2.845578254979424 8.311423737760453 1.642266791898964 -1 -1 1
135 14 8 -0.358962 3.795907824725973 6.868222944542803 4.229612296306627 -3 1 2
251 26 1 -0.091672 13.15011964440996 0.015192564676237197 4.562205697926716 2 -1 2
53 6 7 -0.358962 0.9362488034889731 7.9942307207421 4.634014145610326 1 1 3
1440 144 10 -0.358962 2.5679936555210183 9.061249021806367 2.4826886135576913 -1 -1 1
131 14 1 -0.091672 2.5637309259224104 6.181149582365785 6.38269437349163 -3 1 2
137 14 5 0.404798 2.2033959481847027 4.06762603614943 5.591939612371823 -3 1 2
136 14 2 -0.091672 2.0524811196251678 4.969478655479209 6.639749344376247 -3 1 2
933 94 7 -0.358962 0.10219653047754207 4.916167239413141 1.2034759329993228 0 0 1
1432 144 3 0.404798 5.506824585011224 7.791022289577289 0.9113282465536732 -1 -1 1
252 26 3 0.404798 11.984561444834206 0.3839851199944247 3.7447727203095886 2 -1 2
1431 144 1 -0.091672 4.407106428019287 7.045171737430516 0.32005975010105714 -1 -1 1
132 14 3 0.404798 2.180241090668934 7.204497472504795 7.285947590643857 -3 1 2
139 14 9 -0.358962 2.5248110076250962 3.3583766002411686 4.732138700337467 -3 1 2
723 73 7 -0.358962 4.796301251590333 0.7192651220507921 3.453157321965305 -2 -1 3
134 14 4 0.404798 3.2817345548905617 6.593242047242458 5.23241404992973 -3 1 2
619 62 9 -0.358962 6.857728504897655 10.121607231810204 4.79118962399125 4 -1 3
1453 146 7 -0.358962 6.254120874896058 4.831548776457038 3.992969153085527 -1 0 -2
72 8 3 0.404798 7.612919094079108 2.867879884858645 6.5558642889145196 2 -1 1
96 10 2 -0.091672 13.983487174896185 4.356124964614207 4.1427335477003 -2 0 2
1433 144 7 -0.358962 6.258362184493039 8.449928214192104 1.5000847730395666 -1 -1 1
1033 104 7 -0.358962 10.442429403093312 1.4633899659610765 7.493950263984941 -2 1 -2
94 10 4 0.404798 13.710028344575099 3.897838028737941 6.410079080283274 -2 0 2
73 8 7 -0.358962 7.886909772971035 2.0275706629405406 5.804592336098893 2 -1 1
1455 146 8 -0.358962 9.702131129415386 5.9337444215584805 1.812944655668131 -1 0 -2
590 59 10 -0.358962 2.7205343676210734 3.419891687856005 1.0697737958248832 1 1 -2
1456 146 2 -0.091672 8.506788213033216 7.39354584669796 4.857158096730939 -1 0 -2
1457 146 5 0.404798 9.64329151241465 8.25738870688505 4.592270851313264 -1 0 -2
1451 146 1 -0.091672 8.245801183830437 6.468587633907704 3.92338183184355 -1 0 -2
97 10 5 0.404798 15.319404548969711 4.883173227160961 4.345492487257288 -2 0 2
1459 146 9 -0.358962 10.63930604266566 8.835244318186334 4.452135212981831 -1 0 -2
264 27 4 0.404798 14.131053178452325 8.018695326810823 2.8961477938251856 1 0 1
257 26 5 0.404798 15.3828608806488 0.3809117304434275 5.231096056424698 2 -1 2
258 26 6 0.404798 14.699601240695708 1.0749312858907814 2.9857080339287516 2 -1 2
98 10 6 0.404798 13.31125678778733 4.6204534759297955 2.917321729294112 -2 0 2
972 98 3 0.404798 15.179071747509223 10.0687514520514 6.006709411404785 -2 0 0
93 10 7 -0.358962 10.759638084511993 3.3647843028431663 4.546157866518822 -2 0 2
52 6 3 0.404798 0.10487270418663093 7.716513666723514 3.8742200432056295 1 1 3
260 26 10 -0.358962 14.82833737974919 1.7065177664259827 2.021277864218131 2 -1 2
740 74 10 -0.358962 0.9062853622478751 0.3364261287563404 6.878535675522409 -1 2 0
1452 146 3 0.404798 7.175119190657016 5.534225055496652 4.053037132931701 -1 0 -2
71 8 1 -0.091672 7.121506529713722 3.865282115603239 7.355199803395049 2 -1 1
971 98 1 -0.091672 15.109034120753648 9.484202258262634 7.297476281518975 -2 0 0
91 10 1 -0.091672 13.182641877590266 3.848618414633906 5.089667531155981 -2 0 2
1513 152 7 -0.358962 10.315406309778298 9.792465787120205 1.5025354420914039 1 2 1
1436 144 2 -0.091672 3.1382660591927443 7.363346354004124 0.6105920750245923 -1 -1 1
267 27 5 0.404798 13.532904651245499 7.838537663839066 0.1495330096233647 1 0 1
1454 146 4 0.404798 9.080668568967434 6.2203679802858165 2.749550885168193 -1 0 -2
265 27 8 -0.358962 13.288441251420313 7.7047259493255895 3.628969996999514 1 0 1
253 26 7 -0.358962 11.10610375421755 0.6720884120863271 3.0441239995958953 2 -1 2
100 10 10 -0.358962 12.770985003224858 4.959352319657337 1.9483769492881198 -2 0 2
266 27 2 -0.091672 14.826618344287194 8.40888547255759 0.5673404744823595 1 0 1
92 10 3 0.404798 11.862405240219736 3.6094912208257464 4.810019881584848 -2 0 2
256 26 2 -0.091672 14.374264603324525 0.4692166673624578 4.260657569296973 2 -1 2
74 8 4 0.404798 5.730615871385778 3.783881173712286 7.514612304279885 2 -1 1
974 98 4 0.404798 15.269642715724146 8.081265548205533 7.48664713836225 -2 0 0
261 27 1 -0.091672 15.091919023657312 8.504330629091015 1.8773426777644613 1 0 1
923 93 7 -0.358962 8.489381785414148 0.502275213422505 1.8319160211559693 1 3 1
922 93 3 0.404798 9.126165154913203 0.021485318609503423 0.9899255041204246 1 3 1
930 93 10 -0.358962 12.410156401266066 1.9553546540691316 0.32228939339940244 1 3 1
588 59 6 0.404798 2.3234254919755326 2.6296817580538603 0.3191255258112452 1 1 -2
587 59 5 0.404798 1.7104635390531338 0.31478132001980735 0.1557979444985401 1 1 -2
75 8 8 -0.358962 4.5706170266780095 3.785519430542036 7.514879092253099 2 -1 1
975 98 8 -0.358962 15.596639067303222 6.968393536896769 7.5004049231244885 -2 0 0
95 10 8 -0.358962 14.135985282741746 3.8421517920516095 7.487603910367697 -2 0 2
928 93 6 0.404798 11.801524231010973 1.0003038525732881 0.0712017875182589 1 3 1
976 98 2 -0.091672 14.798866376069842 10.337688671567973 8.28284776945371 -2 0 0
1466 147 2 -0.091672 5.693678193271641 9.184441090427715 10.331024481428058 1 2 -1
1467 147 5 0.404798 5.31167473014694 8.216148656520671 11.318768310270377 1 2 -1
1469 147 9 -0.358962 4.953366637678795 7.458217693716963 12.12048897197611 1 2 -1
401 41 1 -0.091672 6.142120774883893 9.497159130185317 15.209808817020717 -1 -1 1
408 41 6 0.404798 8.276343195530758 8.317965243751468 15.475510097207463 -1 -1 1
79 8 9 -0.358962 6.697174566625578 6.063630705955222 9.915789584477661 2 -1 1
77 8 5 0.404798 7.243043419741959 5.535683180366834 9.038920947642563 2 -1 1
487 49 5 0.404798 3.1530975179912577 4.75894108939013 10.728808342663664 0 1 0
490 49 10 -0.358962 3.3598562942759505 1.2511402307045303 11.405529179124722 0 1 0
484 49 4 0.404798 2.0025496117772357 5.451705970707711 13.329942314194552 0 1 0
1468 147 6 0.404798 5.005346090978983 9.210634673026036 9.149733298532261 1 2 -1
488 49 6 0.404798 3.1491826672653596 2.3868902459860957 11.51177689975644 0 1 0
483 49 7 -0.358962 1.4981676126330998 2.2689176489079186 14.615241733317657 0 1 0
188 19 6 0.404798 8.177288564208649 1.996382565165033 15.154846473402372 -2 2 2
481 49 1 -0.091672 2.34100656795506 4.097300889101754 12.997469869803531 0 1 0
486 49 2 -0.091672 2.837695137935429 3.8171254716018614 11.784868438706342 0 1 0
1465 147 8 -0.358962 8.072404730041036 9.778582569046579 12.805849604544406 1 2 -1
489 49 9 -0.358962 3.3748975942418387 5.491686788237452 9.8573219721556 0 1 0
190 19 10 -0.358962 7.561245596169249 2.631088492361399 14.404353664855535 -2 2 2
406 41 2 -0.091672 6.861749751826604 8.366821336519763 15.201404840583583 -1 -1 1
482 49 3 0.404798 1.8016874309638897 3.1185305332387316 13.886109568065063 0 1 0
409 41 9 -0.358962 5.979498598013324 5.988718788217496 14.682712437544591 -1 -1 1
407 41 5 0.404798 6.356830194398691 7.038690417134933 15.000171874799713 -1 -1 1
1036 104 2 -0.091672 12.33902207728662 2.193308049070576 10.23354497398762 -2 1 -2
84 9 4 0.404798 1.8936524523065004 9.953214480121845 12.05952355057149 0 -1 -1
1619 162 9 -0.358962 15.37629977806003 7.323792207705731 13.008198055946156 1 2 -1
485 49 8 -0.358962 1.7953504827905615 6.5788763563085615 13.509261752018364 0 1 0
140 14 10 -0.358962 0.8287954618791145 4.361338638900723 8.87229384887926 -3 1 2
76 8 2 -0.091672 7.90609724829004 4.6937906003518375 8.057760196058975 2 -1 1
765 77 8 -0.358962 8.661118308256276 6.128193103669282 13.11990744091298 2 0 0
85 9 8 -0.358962 2.700451675935418 9.438551945752252 11.403934122121873 0 -1 -1
655 66 8 -0.358962 10.941416779172505 9.536012618999687 13.246316447846537 0 2 2
767 77 5 0.404798 12.228889759207748 5.1532658601051855 13.206467744383708 2 0 0
332 34 3 0.404798 9.232602381208373 0.39969359478380173 12.039419730544049 0 2 0
1031 104 1 -0.091672 12.432978760075356 1.5950704638556865 9.038185606593194 -2 1 -2
977 98 5 0.404798 14.491759097630549 9.94906006947557 9.578088235770686 -2 0 0
410 41 10 -0.358962 9.422697315690597 8.401501303926207 15.632015611007375 -1 -1 1
1461 147 1 -0.091672 6.740057971793758 9.9989729587463 10.52396806996765 1 2 -1
687 69 5 0.404798 14.194701508717738 0.2503607788165521 15.627484776081626 0 1 2
761 77 1 -0.091672 10.823690526334971 6.321647634305603 11.671102811193222 2 0 0
1034 104 4 0.404798 13.602743664919686 0.9140084615050141 8.605815389191351 -2 1 -2
1039 104 9 -0.358962 14.290689081422522 2.326769872361156 11.918155063108976 -2 1 -2
1038 104 6 0.404798 11.099304675844254 2.8846274135450547 10.44901351407589 -2 1 -2
979 98 9 -0.358962 14.175543827470289 9.6046773806476 10.639694791821954 -2 0 0
762 77 3 0.404798 10.602416050876583 6.956167278159019 10.393617367531698 2 0 0
733 74 7 -0.358962 0.818740022456256 0.10080560145244125 10.591204482978469 -1 2 0
768 77 6 0.404798 13.217736769154289 6.101025156398122 11.183815080083399 2 0 0
183 19 7 -0.358962 11.46831370020844 1.0219671795084946 13.89271541108806 -2 2 2
182 19 3 0.404798 10.82123608383419 0.8924062789462371 14.846709439625293 -2 2 2
769 77 9 -0.358962 12.301882021263118 4.436010669868192 14.115212554440628 2 0 0
1035 104 8 -0.358962 14.52146611859625 0.32560666601615723 8.211693076299479 -2 1 -2
763 77 7 -0.358962 10.5170331875525 7.471641376713551 9.357955148986811 2 0 0
82 9 3 0.404798 0.6170658486210141 9.922493670015976 14.083512108749911 0 -1 -1
133 14 7 -0.358962 1.8631043881310076 8.114347269899232 7.931856031129682 -3 1 2
1037 104 5 0.404798 13.40442121491584 2.2811307604487157 11.17113006308071 -2 1 -2
404 41 4 0.404798 4.738461388461948 9.558885887140837 14.836784109536303 -1 -1 1
1032 104 3 0.404798 11.377648633603068 1.5213620920189532 8.177766233156719 -2 1 -2
766 77 2 -0.091672 12.045244323995728 5.8821801377391285 12.003179126279607 2 0 0
770 77 10 -0.358962 14.118387355921001 6.252044820101527 10.468537800116776 2 0 0
764 77 4 0.404798 9.619733031465973 6.2181323450027755 12.472938542355736 2 0 0
1040 104 10 -0.358962 10.131298558386046 3.5147159028533923 10.556497091061548 -2 1 -2
405 41 8 -0.358962 3.6188428060643596 9.648963866264447 14.547059631589498 -1 -1 1
333 34 7 -0.358962 8.821912811058269 1.4665564416012544 11.84260066737316 0 2 0
1464 147 4 0.404798 7.457164481195141 9.917747177902113 11.832344255863612 1 2 -1
83 9 7 -0.358962 0.6119015699728737 9.416036469235788 15.127099441200818 0 -1 -1
1470 147 10 -0.358962 4.464648057868047 9.248624512492261 8.124159111254906 1 2 -1
78 8 6 0.404798 9.304070203995261 4.757934552545426 7.990251387685842 2 -1 1
81 9 1 -0.091672 0.745573008389661 10.430442509545667 12.785338076656814 0 -1 -1
80 8 10 -0.358962 10.461882826081592 4.687162930206553 7.99808216830507 2 -1 1
138 14 6 0.404798 1.2855791275683943 4.614494015488887 7.836503793194678 -3 1 2
1054 106 4 0.404798 2.21969988714659 3.8464454200429694 23.468187272659502 5 1 0
1121 113 1 -0.091672 1.3007141262117698 3.3533404287998243 17.741849691978647 0 -1 2
1126 113 2 -0.091672 0.8283297286217963 2.4087861182496746 18.566634625936146 0 -1 2
1124 113 4 0.404798 2.6591264567080906 3.7330733500913293 17.626044467027672 0 -1 2
1127 113 5 0.404798 1.5577809968353113 1.6179362423983963 19.43272951207822 0 -1 2
1129 113 9 -0.358962 2.1934631256328396 1.0119246992211182 20.19052781757558 0 -1 2
1125 113 8 -0.358962 3.7943147909628965 3.9619295304146815 17.558425657074267 0 -1 2
801 81 1 -0.091672 5.5189409740557185 0.35220129372009185 21.79243180849936 0 0 2
496 50 2 -0.091672 3.2593823823106263 8.375620637331902 18.39694070161771 3 0 -3
805 81 8 -0.358962 4.370562965843047 2.4805610429577767 21.015174605006074 0 0 2
804 81 4 0.404798 4.920616611055621 1.5244182559367665 21.374106323641044 0 0 2
497 50 5 0.404798 3.851541522087695 9.529254143533823 17.92751117972534 3 0 -3
181 19 1 -0.091672 9.963341691510507 0.638055592560427 15.920548653697907 -2 2 2
498 50 6 0.404798 4.1604541351268365 7.292751586741315 18.549136494160614 3 0 -3
493 50 7 -0.358962 1.133752304445302 5.910789185558428 19.329812946319358 3 0 -3
500 50 10 -0.358962 4.898408963022647 6.426259674043818 18.773222399197692 3 0 -3
1053 106 7 -0.358962 2.313581793714959 7.077900214254258 22.330110037564896 5 1 0
565 57 8 -0.358962 13.336059711799939 10.054145318000593 22.585486979658352 -1 0 4
494 50 4 0.404798 1.0488881771731298 9.401865455690174 18.525479460458563 3 0 -3
491 50 1 -0.091672 1.9506790978128783 8.265531830521656 18.662978619530755 3 0 -3
1055 106 8 -0.358962 1.6377322080572345 2.913541221981728 23.09858821762353 5 1 0
492 50 3 0.404798 1.5141521245752887 6.975591583420247 19.070791932835068 3 0 -3
1122 113 3 0.404798 0.37061189552626467 4.031794021028469 16.936408395927334 0 -1 2
1052 106 3 0.404798 2.6220031528720344 6.170142996493481 22.983143834877687 5 1 0
793 80 7 -0.358962 6.910419592489817 5.075749700883585 23.296525361648403 1 1 3
204 21 4 0.404798 13.154858158587732 2.8072432873555244 22.46313954820076 -1 -2 -2
189 19 9 -0.358962 7.300338691769194 0.6071896922863563 18.119631529415035 -2 2 2
1157 116 5 0.404798 14.32556978241707 5.50788213068961 19.096943242564908 2 3 0
495 50 8 -0.358962 0.3766932569237735 10.346504255513144 18.487908482569576 3 0 -3
1527 153 5 0.404798 6.242870931751148 10.093147322644766 21.898469467843956 2 0 0
187 19 5 0.404798 7.962453616823263 0.907175300869235 17.215633480677717 -2 2 2
1525 153 8 -0.358962 7.195812467078856 8.42660721238006 18.763835039123407 2 0 0
1524 153 4 0.404798 7.411604217332725 9.382558385992501 19.384472863593114 2 0 0
860 86 10 -0.358962 3.765729728206776 0.2249508141801975 17.00581093654355 1 1 -1
186 19 2 -0.091672 8.743095393745556 1.178298021087685 16.041945237255696 -2 2 2
201 21 1 -0.091672 12.416687521366827 3.077654109879045 21.27962407815945 -1 -2 -2
1153 116 7 -0.358962 14.343279724857762 9.779962781489596 16.872239955428785 2 3 0
1151 116 1 -0.091672 15.071889210074781 7.497882822372278 17.77377970564715 2 3 0
1152 116 3 0.404798 14.694465476011557 8.764750215868096 17.309975069561016 2 3 0
796 80 2 -0.091672 8.093753284449772 5.390526770889873 20.121838925749913 1 1 3
206 21 2 -0.091672 12.038714256533627 2.053059444875442 20.503130676129068 -1 -2 -2
1156 116 2 -0.091672 14.17284455692688 6.892921256028285 18.562031101902207 2 3 0
799 80 9 -0.358962 9.489180909933106 6.248255407214641 18.18288826547769 1 1 3
564 57 4 0.404798 14.257895745895445 9.46242273668848 22.96717106723662 -1 0 4
798 80 6 0.404798 7.489927039267327 4.1688277183051925 19.938482885031387 1 1 3
800 80 10 -0.358962 6.885841069170066 3.1916767353914044 19.777684528668498 1 1 3
797 80 5 0.404798 8.892708382573687 5.89406636189289 19.112603630893975 1 1 3
353 36 7 -0.358962 15.308841419063016 3.068970978344253 15.895817085753006 -5 -1 0
1160 116 10 -0.358962 11.916029490843918 8.000060405748423 19.212724173441543 2 3 0
1158 116 6 0.404798 12.96454953457125 7.553107306751626 18.997227877707537 2 3 0
689 69 9 -0.358962 13.448557130145817 0.8375547232605852 16.29387193170809 0 1 2
202 21 3 0.404798 12.110588071780834 4.440051716251133 20.96494455815646 -1 -2 -2
205 21 8 -0.358962 13.78259668228847 2.666847534128428 23.428454739434468 -1 -2 -2
1529 153 9 -0.358962 5.393551899707143 9.442197362092147 22.34626557003169 2 0 0
208 21 6 0.404798 11.397665457078642 2.4108928016769204 19.252916737756614 -1 -2 -2
794 80 4 0.404798 8.764713066810094 7.250605878618634 21.529337265863504 1 1 3
207 21 5 0.404798 12.531703142860195 0.6919207565008572 20.543873650143297 -1 -2 -2
791 80 1 -0.091672 8.122095806276077 6.041959352157268 21.29249357249589 1 1 3
210 21 10 -0.358962 10.869829347896431 2.726199898146586 18.26926511551827 -1 -2 -2
203 21 7 -0.358962 11.920469498115168 5.540211074131004 20.650136179495195 -1 -2 -2
792 80 3 0.404798 7.430749581495448 5.620989952582486 22.414726183390854 1 1 3
795 80 8 -0.358962 9.228985835090343 8.285819801275727 21.770962932237456 1 1 3
1159 116 9 -0.358962 14.501422614754814 4.411135191771564 19.431341132754845 2 3 0
807 81 5 0.404798 3.5662373124763875 0.041848534904236345 23.146942844921465 0 0 2
809 81 9 -0.358962 2.459547441276538 0.2515959810552645 23.424149568217004 0 0 2
1539 154 9 -0.358962 10.525943290804136 0.8076492216002042 23.452316490139477 0 0 1
1057 106 5 0.404798 4.251286139232743 3.878087904402186 25.455031762016457 5 1 0
1059 106 9 -0.358962 4.649171144209336 2.9274342472158112 25.98752134235778 5 1 0
561 57 1 -0.091672 15.310134379052046 8.70051362077442 23.496618328883976 -1 0 4
1435 144 8 -0.358962 4.967122723193917 5.447422598329247 29.614481631290975 -1 -1 0
1434 144 4 0.404798 4.765601834335401 6.1355056360086735 30.52636490919515 -1 -1 0
584 59 4 0.404798 1.7931381480066118 0.6313730927192194 28.63646691388456 1 1 -3
1025 103 8 -0.358962 5.735637657021015 0.4630867023938224 29.030439836656146 1 0 -1
582 59 3 0.404798 2.3557949122953317 2.982673847158153 28.80488478442333 1 1 -3
1051 106 1 -0.091672 2.8563123329183955 5.044873854794021 23.848679006707485 5 1 0
813 82 7 -0.358962 2.296690066247998 8.226365513992029 26.253632930936817 2 0 2
1058 106 6 0.404798 4.532957915003422 6.175900277852802 25.17987792260636 5 1 0
756 76 2 -0.091672 6.079644979037429 10.173240339172494 28.442723431281618 1 -3 -2
1371 138 1 -0.091672 8.087141062148541 2.9393369627693624 27.21199451748149 1 0 -2
1372 138 3 0.404798 8.078755200023911 2.5953965333752604 25.848225431890103 1 0 -2
586 59 2 -0.091672 2.034196370855895 1.5162203363236442 30.766046854007385 1 1 -3
1060 106 10 -0.358962 5.167895001795005 7.093914202061104 25.495639486152925 5 1 0
310 31 10 -0.358962 10.721097323135176 6.476236630274707 24.221585595206296 0 2 -1
581 59 1 -0.091672 2.1446255970916632 1.7139688458048028 29.445327001320276 1 1 -3
583 59 7 -0.358962 2.5608384127931707 3.9669083955026814 28.226231588118456 1 1 -3
1373 138 7 -0.358962 8.257706211664443 2.520077613058466 24.70458929677321 1 0 -2
757 76 5 0.404798 4.709226747816528 9.824351131690463 28.804353401917943 1 -3 -2
1056 106 2 -0.091672 3.8136864524179224 5.058443071282136 24.786149420606062 5 1 0
309 31 9 -0.358962 12.43412766621927 6.362438901622812 28.277518380804423 0 2 -1
1437 144 5 0.404798 2.0604460030328897 6.781160098968162 31.11463062894039 -1 -1 0
1439 144 9 -0.358962 1.3216381542275122 6.295868377936209 30.36346159054496 -1 -1 0
759 76 9 -0.358962 3.6847891333446583 9.421120725274184 29.169774839089005 1 -3 -2
283 29 7 -0.358962 15.041719664826191 7.393503408133524 28.111380301515297 0 1 0
1375 138 8 -0.358962 8.687644840982449 0.8919957402801771 28.690150967555184 1 0 -2
758 76 6 0.404798 7.1424796945929385 9.256030095082185 28.608775130150892 1 -3 -2
812 82 3 0.404798 1.799099913260993 9.272840438548434 26.19983435929051 2 0 2
306 31 2 -0.091672 10.862758136216478 7.459576489464761 26.575643279641138 0 2 -1
304 31 4 0.404798 10.646115149414076 9.361191837647834 28.01547561911945 0 2 -1
1537 154 5 0.404798 10.778616803007587 1.2070508157630468 24.51167218060988 0 0 1
305 31 8 -0.358962 10.694599383108073 9.934936574618842 29.022484187257785 0 2 -1
303 31 7 -0.358962 9.18637860077844 10.052759685536799 24.95256660628987 0 2 -1
308 31 6 0.404798 10.801835300215139 6.949259290841252 25.27767789752083 0 2 -1
1538 154 6 0.404798 10.924470907980478 2.979861300524438 26.089973817706984 0 0 1
286 29 2 -0.091672 15.571386389136999 4.265263808087876 26.714750125569594 0 1 0
301 31 1 -0.091672 10.448907725264135 8.712368021197944 26.809825347750674 0 2 -1
1540 154 10 -0.358962 10.60833988437699 4.018282010179933 26.499050447593632 0 0 1
302 31 3 0.404798 9.758892818040644 9.495552871432208 25.79360650718188 0 2 -1
535 54 8 -0.358962 0.29068441802185885 5.996684547088612 25.67384604428335 3 1 2
1374 138 4 0.404798 8.407911985643398 1.8261510594056536 28.061896728496773 1 0 -2
1532 154 3 0.404798 12.445998744734071 1.274018687182058 27.7857386178047 0 0 1
1379 138 9 -0.358962 8.019000815221366 4.5587558834335296 30.24399480392144 1 0 -2
290 29 10 -0.358962 14.405666091378048 5.310790087689598 24.69407058612835 0 1 0
1380 138 10 -0.358962 7.574635635737507 6.3294934966391345 26.36184797352864 1 0 -2
1531 154 1 -0.091672 11.956553743888502 0.7663830133673436 26.52432669163434 0 0 1
1536 154 2 -0.091672 11.226618729224855 1.6196900107649648 25.793120770582988 0 0 1
282 29 3 0.404798 15.409493150429732 6.304772365376494 27.953243074022325 0 1 0
307 31 5 0.404798 11.70395810919166 6.846936245365813 27.51744288292148 0 2 -1
760 76 10 -0.358962 8.083680760721206 8.578071552089622 28.619395096150335 1 -3 -2
1376 138 2 -0.091672 7.849097239675094 4.141710639647598 27.75350420081056 1 0 -2
1378 138 6 0.404798 7.64072282464052 5.349476233225099 26.97893684578476 1 0 -2
1377 138 5 0.404798 7.95927013854778 4.457185528028759 29.08999492704987 1 0 -2
288 29 6 0.404798 14.90488645019087 4.8459958531293115 25.632337837140295 0 1 0
1533 154 7 -0.358962 12.873215333745557 1.7167217691369079 28.769151055440673 0 0 1
269 27 9 -0.358962 12.485717872846251 7.524152767483305 31.065025491793335 1 0 0
611 62 1 -0.091672 4.645958989808716 12.571710334921299 3.9500580351375665 4 -1 3
745 75 8 -0.358962 13.108901160284931 10.878570107863 1.4211782128147135 1 2 1
973 98 7 -0.358962 15.319200072307295 10.622297263514579 4.996981185914671 -2 0 0
1359 136 9 -0.358962 3.7034605555648743 11.481422989838451 0.15208673223698976 -1 -3 0
1336 134 2 -0.091672 5.148791709515588 16.354934336909707 0.15491360289194625 2 0 -2
614 62 4 0.404798 5.744431215388637 13.025186846327347 3.1487238426909503 4 -1 3
844 85 4 0.404798 3.341426202369766 15.639818119302365 7.443789155562431 2 -2 -1
1337 134 5 0.404798 6.433211034375813 16.13347036868911 0.7912788183784489 2 0 -2
617 62 5 0.404798 5.860466847530229 10.714058037715027 4.782749508872018 4 -1 3
1335 134 8 -0.358962 5.944364063321847 19.811266701991112 0.0400790280931154 2 0 -2
615 62 8 -0.358962 6.651697878277825 13.383193221159768 2.5207917893615703 4 -1 3
34 4 4 0.404798 6.920549184649475 20.289798544313015 7.635322541353745 -2 -1 0
40 4 10 -0.358962 5.882074667763095 18.623487642428643 3.2336451920657523 -2 -1 0
849 85 9 -0.358962 0.9284110820041888 17.77059293175199 5.696693506620057 2 -2 -1
1339 134 9 -0.358962 7.43261331508619 15.841247586332114 1.3025526468043653 2 0 -2
612 62 3 0.404798 3.576809769986461 13.5937669681217 3.7968105926068785 4 -1 3
613 62 7 -0.358962 2.7966769519763877 14.45068185547881 3.744948573406171 4 -1 3
847 85 5 0.404798 1.142777602785646 17.288921384509504 6.72995996027302 2 -2 -1
38 4 6 0.404798 6.311025877401464 19.12406571542514 4.188120168361795 -2 -1 0
191 20 1 -0.091672 8.58763890505192 15.89209448370088 6.66576900316932 -1 2 0
620 62 10 -0.358962 2.680638167617869 10.670280744543046 6.392177469903071 4 -1 3
508 51 6 0.404798 1.1442952468378076 20.734859348469808 6.468383636246516 3 1 1
200 20 10 -0.358962 7.963731496233144 12.493499834799989 6.07758789744746 -1 2 0
1358 136 6 0.404798 0.44185100895324597 11.380284226050556 1.1826042437885185 -1 -3 0
1102 111 3 0.404798 11.364988911456187 16.52683054370056 1.3160858871441439 -1 0 -2
618 62 6 0.404798 3.500196668219059 11.077102237308365 5.679141607856406 4 -1 3
36 4 2 -0.091672 6.921509144118308 19.753622171305945 5.254468866543223 -2 -1 0
616 62 2 -0.091672 4.682427179243434 11.549915336106524 4.816201818737588 4 -1 3
193 20 7 -0.358962 6.664493396480204 16.208594425760676 4.989646006737658 -1 2 0
833 84 7 -0.358962 2.9388409304088507 18.857165405228102 2.5546836632762364 1 -2 -3
192 20 3 0.404798 7.563469355374037 16.048389843147557 5.705031733953751 -1 2 0
31 4 1 -0.091672 6.357622408470582 19.743039797800392 6.470001582083779 -2 -1 0
198 20 6 0.404798 8.320537883521839 13.452981402248783 6.623192448345493 -1 2 0
832 84 3 0.404798 2.304422995491821 19.511549200776166 1.8371213090562355 1 -2 -3
20 2 10 -0.358962 14.08229404708827 14.066045121635499 1.1836542173747027 1 -2 0
1512 152 3 0.404798 9.751761129286884 10.504345269500599 0.7806409106428068 1 2 1
18 2 6 0.404798 14.676663469312007 13.934650116996192 0.19620276808410886 1 -2 0
194 20 4 0.404798 9.261933199239751 17.08609298775272 7.1601369440715095 -1 2 0
33 4 7 -0.358962 4.152223605512697 18.45720916293897 6.912714477628679 -2 -1 0
1357 136 5 0.404798 2.5532279954386983 11.564322389953999 0.026816007553544477 -1 -3 0
1107 111 5 0.404798 11.537183844671178 18.7719448519106 4.265691185103239 -1 0 -2
749 75 9 -0.358962 9.484905901929277 12.563966721619416 3.0324180819005075 1 2 1
1108 111 6 0.404798 10.131716075255726 18.800981989285397 2.2835773124328056 -1 0 -2
1110 111 10 -0.358962 9.123639988476558 19.153626643565428 1.8307811515545254 -1 0 -2
1109 111 9 -0.358962 11.86199952167742 19.30326050663125 5.244362973011299 -1 0 -2
1356 136 2 -0.091672 1.1910646010244104 11.752533823517627 0.025989563604151462 -1 -3 0
196 20 2 -0.091672 8.828142650580345 14.671526141011606 7.1637358654094445 -1 2 0
1150 115 10 -0.358962 14.511342926553434 15.62243163686848 6.537899517355097 -1 0 1
831 84 1 -0.091672 1.5991481392789868 20.32759229420498 0.9323101192416969 1 -2 -3
1105 111 8 -0.358962 13.554707739121701 15.74613282200827 3.9357824222905458 -1 0 -2
743 75 7 -0.358962 15.253047427279679 13.413286989800323 4.322026589759643 1 2 1
32 4 3 0.404798 5.128866360538624 19.05895913450535 6.740476276836121 -2 -1 0
37 4 5 0.404798 8.224372700663068 20.332977267452815 4.980468820490084 -2 -1 0
742 75 3 0.404798 14.27628261972734 12.985787544918406 3.865107823280759 1 2 1
747 75 5 0.404798 10.568461499409153 12.74401371874258 3.4053663002123837 1 2 1
1106 111 2 -0.091672 11.27432874237129 18.24588574442583 2.9808258489651447 -1 0 -2
748 75 6 0.404798 11.872498280152154 13.73645371735822 5.135199757510729 1 2 1
741 75 1 -0.091672 13.011661612327405 12.513737475313086 3.4425185241133716 1 2 1
746 75 2 -0.091672 11.864326690806221 12.933868698758932 3.992711536309042 1 2 1
1103 111 7 -0.358962 11.031730175606983 15.972162853212414 0.3533385781978937 -1 0 -2
50 5 10 -0.358962 14.081187301137607 20.235182324293206 3.060346853162643 0 0 2
744 75 4 0.404798 13.022238147105172 11.643436539095502 2.288973652630331 1 2 1
1101 111 1 -0.091672 11.738995473499408 17.051507633184297 2.589487408161105 -1 0 -2
750 75 10 -0.358962 11.840064998930446 14.444045986710464 6.053818998860614 1 2 1
1104 111 4 0.404798 12.788290715274531 16.342401704725013 3.301220834753016 -1 0 -2
845 85 8 -0.358962 4.31793123216691 15.598360119071446 6.819033873582014 2 -2 -1
836 84 2 -0.091672 0.31490991888613223 20.07792230984483 0.6424875730283554 1 -2 -3
1148 115 6 0.404798 15.639251385833884 15.698678217873455 6.27788225352234 -1 0 1
39 4 9 -0.358962 9.31716823264343 20.66766951524225 4.782027292324599 -2 -1 0
980 98 10 -0.358962 14.183883853651675 12.805470122188707 7.806530411743711 -2 0 0
195 20 8 -0.358962 9.79324115015383 18.05784261554559 7.50512177058265 -1 2 0
1338 134 6 0.404798 4.225462062680656 15.252369664394239 0.030505919950218896 2 0 -2
460 46 10 -0.358962 14.62549872981724 17.683346540437636 9.60863473889285 3 1 0
846 85 2 -0.091672 1.2853477193148857 16.691362151483123 8.034887199438014 2 -2 -1
166 17 2 -0.091672 5.22740593389086 17.901487765337748 13.079166223240419 -1 -1 1
841 85 1 -0.091672 2.2557968006638207 15.826917428071152 8.361328521326518 2 -2 -1
842 85 3 0.404798 2.507375334407849 15.32582044249582 9.689926061527018 2 -2 -1
843 85 7 -0.358962 2.690085593064841 14.862166804636633 10.737419406509074 2 -2 -1
1257 126 5 0.404798 11.974555837598954 20.34791866623881 9.073563125321483 0 0 -1
161 17 1 -0.091672 3.904597394881954 17.709015550717346 12.985720641352414 -1 -1 1
373 38 7 -0.358962 4.03393087126727 11.717053306215323 12.50675864206965 1 2 -2
168 17 6 0.404798 5.988777047809406 18.401596405389505 12.081432047377406 -1 -1 1
378 38 6 0.404798 6.897302650706701 14.024169867165204 12.994906540322324 1 2 -2
170 17 10 -0.358962 6.608915420121723 18.778483754120252 11.176454517711354 -1 -1 1
374 38 4 0.404798 5.366444213801269 12.877450111025375 9.743265007933102 1 2 -2
375 38 8 -0.358962 4.91710891942599 12.730573802466806 8.68396091541965 1 2 -2
167 17 5 0.404798 5.900123091049218 17.546209939532467 14.242997760579543 -1 -1 1
376 38 2 -0.091672 6.589383155462922 13.927634231684314 11.608699604782752 1 2 -2
436 44 2 -0.091672 13.742047352460096 20.159358818818784 12.581331757481825 1 -1 3
162 17 3 0.404798 3.177128282827487 18.2801681310629 11.95987146568703 -1 -1 1
454 46 4 0.404798 13.027149457542498 13.426145832811715 11.181542208788649 3 1 0
371 38 1 -0.091672 5.729433845893687 13.042696613007134 11.086231809424444 1 2 -2
432 44 3 0.404798 15.642841474648584 18.650679938718152 12.438373548844341 1 -1 3
435 44 8 -0.358962 13.261518533105209 17.371196811381804 14.573560532663993 1 -1 3
913 92 7 -0.358962 0.3218808282483908 15.273576372662573 14.814987543064877 1 3 -1