LAMMPS data file via write_data, version 29 Sep 2021, timestep = 1000000

2000 atoms
10 atom types
1800 bonds
9 bond types
2000 angles
10 angle types
2400 dihedrals
12 dihedral types

0 29.3823 xlo xhi
0 30.9925 ylo yhi
0 36.0826010580719 zlo zhi
1.89774329612872e-15 2.87049689845316 2.0406352745682e-15 xy xz yz

Masses

1 12.01
2 12.01
3 12.01
4 12.01
5 12.01
6 12.01
7 14.01
8 14.01
9 14.01
10 14.01

Pair Coeffs # lj/cut/coul/long

1 0.076 3.55
2 0.076 3.55
3 0.066 3.3
4 0.066 3.3
5 0.066 3.3
6 0.066 3.3
7 0.17 3.2
8 0.17 3.2
9 0.17 3.2
10 0.17 3.2

Bond Coeffs # harmonic

1 400 1.426
2 400 1.426
3 400 1.426
4 400 1.426
5 549 1.34
6 650 1.16
7 650 1.16
8 650 1.16
9 650 1.16

Angle Coeffs # harmonic

1 70 116.8
2 70 116.8
3 70 121.6
4 70 121.6
5 70 121.6
6 70 121.6
7 70 178.9
8 70 178.9
9 70 178.9
10 70 178.9

Dihedral Coeffs # opls

1 0 0 0 0
2 0 0 0 0
3 0 0 0 0
4 0 0 0 0
5 0 0 0 0
6 0 0 0 0
7 0 0 0 0
8 0 0 0 0
9 0 14 0 0
10 0 14 0 0
11 0 14 0 0
12 0 14 0 0

Atoms # full

336 34 2 -0.091672 9.812429362613818 0.9888943772808728 5.631215289932473 0 1 0
74 8 4 0.404798 1.2212721102679653 5.013969395859414 6.061173167020654 1 0 0
20 2 10 -0.358962 10.087257665127996 9.320152253496767 4.092435447967141 0 0 0
76 8 2 -0.091672 2.2307000165362263 7.24802564456682 5.7182584704734225 1 0 0
396 40 2 -0.091672 2.290605065713494 0.8889684423552227 5.581262632242957 1 1 0
12 2 3 0.404798 8.417801860289934 5.999226620759059 4.218895703726868 0 0 0
13 2 7 -0.358962 7.827815651126965 5.953381958678061 3.195609947766955 0 0 0
1682 169 3 0.404798 6.10414282688274 9.20381765595241 3.1627054242383834 0 0 1
1603 161 7 -0.358962 6.297917843096869 2.9553665759264987 4.444571378100495 0 0 1
11 2 1 -0.091672 9.11296655405286 6.237005453799606 5.533231580202778 0 0 0
14 2 4 0.404798 9.035186486142733 5.178699680632595 6.494120111109177 0 0 0
15 2 8 -0.358962 8.91994049745441 4.316986272471729 7.177440902370402 0 0 0
71 8 1 -0.091672 1.5861825529444542 6.158553304738626 5.253716881557105 1 0 0
33 4 7 -0.358962 14.50828665114524 6.176378934806142 2.6806863345889367 0 0 0
18 2 6 0.404798 9.902022024952569 8.369047063843198 4.784613474038229 0 0 0
79 8 9 -0.358962 3.2703708886350897 7.430591112338902 8.042617478556888 1 0 0
1939 194 9 -0.358962 9.944919132028694 1.5449499247335352 0.7316283094371135 0 1 1
75 8 8 -0.358962 0.9792368377122196 3.986987245556793 6.647096320208518 1 0 0
399 40 9 -0.358962 3.459147475637506 1.0855713366299553 7.801124100569727 1 1 0
1604 161 4 0.404798 5.730157029341735 1.8758645240576954 1.1352345645071757 0 0 1
1679 168 9 -0.358962 2.6562370456716202 7.112626438572965 0.7009781854627306 1 0 1
106 11 2 -0.091672 12.865054825329379 10.205341881390785 8.957512975111921 0 0 0
72 8 3 0.404798 0.865451503575343 6.223863617070648 4.00444126846205 1 0 0
78 8 6 0.404798 2.397817311072013 8.365672420694674 4.816834787883506 1 0 0
80 8 10 -0.358962 2.5052809167403796 9.19333459472448 4.026422522706879 1 0 0
398 40 6 0.404798 2.5462458835805073 2.0270921224245146 4.744716441798552 1 1 0
400 40 10 -0.358962 2.927536214183636 2.955314632825345 4.121186473606744 1 1 0
24 3 4 0.404798 14.096850439611162 1.9830710372974687 7.985616225260218 0 0 0
77 8 5 0.404798 2.774945873029506 7.347748287127397 6.980543693674825 1 0 0
397 40 5 0.404798 2.924698385913147 1.0225143713409315 6.8104264508841865 1 1 0
1601 161 1 -0.091672 5.689782706680846 3.079358654099639 1.9578637267446768 0 0 1
1681 169 1 -0.091672 5.637287817584665 9.325506070929523 1.8729851349976248 0 0 1
1602 161 3 0.404798 6.057419945383577 2.873383993049482 3.3280037489072907 0 0 1
7 1 5 0.404798 4.973363841588953 4.330769797448228 7.8140763091071435 0 0 0
1606 161 2 -0.091672 5.192142373821889 4.202882142648572 1.5176436606941661 0 0 1
25 3 8 -0.358962 14.230538869466006 1.2709187478295372 7.10703578443702 0 0 0
29 3 9 -0.358962 12.443029866928592 4.838007530108077 6.412223846120377 0 0 0
19 2 9 -0.358962 10.953252658561226 7.607862456568777 8.165506802848027 0 0 0
1608 161 6 0.404798 4.980713807853905 5.253906618430948 2.4299944299231337 0 0 1
1610 161 10 -0.358962 4.697795127033013 6.002610367126158 3.2994948167638367 0 0 1
1683 169 7 -0.358962 6.430977210053176 9.254636764345525 4.262522917022158 0 0 1
9 1 9 -0.358962 4.494136026331157 4.38956838477034 6.7900548998056065 0 0 0
1702 171 3 0.404798 13.23255757812183 9.551978097595597 2.8032641367854243 0 0 1
5 1 8 -0.358962 7.258547433276201 1.2361198382810596 7.795719015480917 0 0 0
84 9 4 0.404798 6.7505474486669685 8.220153508368245 7.983212630549853 0 0 0
16 2 2 -0.091672 9.807146592603557 7.3140421802359645 5.801462532740462 0 0 0
85 9 8 -0.358962 6.972478255588771 7.427616878558136 7.138086677202272 0 0 0
1684 169 4 0.404798 5.907024601285259 8.248463152506892 0.9344480314386996 0 0 1
337 34 5 0.404798 10.572530107891362 1.13988678159128 6.7615337204557315 0 1 0
1605 161 8 -0.358962 5.742336060083833 0.9726290517204463 0.3826256706342876 0 0 1
1630 163 10 -0.358962 11.519421921572638 5.883593160609782 3.5615869620979326 0 0 1
338 34 6 0.404798 10.082523185685742 1.9847489963228797 4.648041505463272 0 1 0
26 3 2 -0.091672 13.291906349725334 4.121627623385476 8.71013502033338 0 0 0
17 2 5 0.404798 10.407494788743609 7.476992438455089 7.102557957645242 0 0 0
1628 163 6 0.404798 11.7782142765481 5.184285568464531 2.6438870617401187 0 0 1
340 34 10 -0.358962 10.324757499589811 2.9000151280085484 3.938771845108675 0 1 0
339 34 9 -0.358962 11.243567684996124 1.3273451486757315 7.736061567566893 0 1 0
1623 163 7 -0.358962 13.833517391358544 2.8783794020537896 4.264102227079522 0 0 1
1622 163 3 0.404798 13.346166451692657 2.95900947464035 3.205111579618461 0 0 1
1703 171 7 -0.358962 13.580646033639967 9.45392981540304 3.883848999844631 0 0 1
73 8 7 -0.358962 0.42079354822958204 6.298024634940001 2.9575045837536185 1 0 0
1621 163 1 -0.091672 12.742953525034606 3.110448348297182 1.946937105624803 0 0 1
1701 171 1 -0.091672 12.789336649033086 9.68641712752524 1.4126777811025282 0 0 1
1704 171 4 0.404798 13.003438185223432 8.466953958324236 0.6290886156920265 0 0 1
104 11 4 0.404798 13.948370390543177 8.399077861577796 7.998790361660271 0 0 0
27 3 5 0.404798 12.887172843582611 4.512926958811247 7.44651637546668 0 0 0
1626 163 2 -0.091672 12.0428817161907 4.247109124242289 1.6179204851444433 0 0 1
1624 163 4 0.404798 13.08261877998386 2.120010214900067 0.9728947976068558 0 0 1
105 11 8 -0.358962 14.00344887968351 7.7228597424590815 7.124625471574569 0 0 0
4 1 4 0.404798 6.8597945317290465 2.1215119241176543 8.451006427638758 0 0 0
1999 200 9 -0.358962 2.603177250883619 0.9186738503124504 1.1178588804442064 1 1 1
1619 162 9 -0.358962 9.764882440401642 7.783486523707399 0.9642928332305 0 0 1
1625 163 8 -0.358962 13.338814254942628 1.2878054149261104 0.25552132249357107 0 0 1
1685 169 8 -0.358962 6.0925516681165925 7.354489386417923 0.16097388267502608 0 0 1
1607 161 5 0.404798 4.631477662435555 4.252837928573769 0.281524944218522 0 0 1
1627 163 5 0.404798 11.456201822156958 4.351410397018535 0.3578936340348598 0 0 1
109 11 9 -0.358962 11.682488054688562 10.198041334571993 6.68242462542016 0 0 0
107 11 5 0.404798 12.173139723284926 10.25112848000797 7.703354472936159 0 0 0
86 9 2 -0.091672 5.799710042698422 10.265005771135275 8.668178198562003 0 0 0
81 9 1 -0.091672 6.424417146440993 9.15308227840399 8.97375416800796 0 0 0
739 74 9 -0.358962 10.74730979932113 1.80634281387836 15.460465394065377 0 1 0
736 74 2 -0.091672 9.941995201448146 1.216397015465694 13.01489977126985 0 1 0
476 48 2 -0.091672 2.3674345990402816 7.2883875814682035 12.767670789982208 1 0 0
796 80 2 -0.091672 2.845756737956306 1.2224107709433936 12.850319385858219 1 1 0
412 42 3 0.404798 9.123978895179723 6.198546674348 10.961711012132042 0 0 0
413 42 7 -0.358962 8.717038674182737 5.9948222567980425 9.909801307250149 0 0 0
485 49 8 -0.358962 7.576506952734663 7.2379280474605485 14.783154498807086 0 0 0
416 42 2 -0.091672 10.396627682947036 7.289330057886163 12.671038641994716 0 0 0
472 48 3 0.404798 1.638742115055392 5.546844354876442 11.180854695768316 1 0 0
23 3 7 -0.358962 14.544325954897412 2.4339442913635505 11.448150404902508 0 0 0
3 1 7 -0.358962 7.183103247431754 2.7577238362186294 11.821666326507863 0 0 0
489 49 9 -0.358962 4.99711006844138 10.222988371909866 13.710936780448625 0 0 0
2 1 3 0.404798 6.886155095578263 2.9125407579693348 10.712715356377227 0 0 0
411 42 1 -0.091672 9.578538284994302 6.328916056465439 12.272782406902643 0 0 0
414 42 4 0.404798 9.240190457025358 5.278470146802042 13.145602299124599 0 0 0
415 42 8 -0.358962 8.930946340562599 4.463344621466198 13.906691495927724 0 0 0
471 48 1 -0.091672 1.75020446074249 6.107941938702554 12.473730522618286 1 0 0
474 48 4 0.404798 1.1792162891677027 5.227809722521381 13.495709359657253 1 0 0
479 48 9 -0.358962 2.6196015861385913 7.942503694945394 15.291550035184711 1 0 0
799 80 9 -0.358962 2.9984391205521117 2.2107784862281186 15.206055989470276 1 1 0
484 49 4 0.404798 7.354780059959701 8.103457969232876 15.530866643204295 0 0 0
6 1 2 -0.091672 5.630823135216904 4.196512065481449 9.029739555847936 0 0 0
8 1 6 0.404798 5.223635090409331 5.198489456647423 10.032473651711781 0 0 0
422 43 3 0.404798 14.715444041447618 2.6864367806541813 17.55553150135651 0 0 0
420 42 10 -0.358962 10.608370753973933 9.254779998803329 10.943461259065483 0 0 0
478 48 6 0.404798 2.895629391980951 8.207506283817748 11.739146568852648 1 0 0
480 48 10 -0.358962 3.2601763200292675 8.95521883046221 10.928263994727885 1 0 0
798 80 6 0.404798 3.2195434723727088 2.1377234420838755 11.828094556311495 1 1 0
800 80 10 -0.358962 3.5963660215168067 2.9011193704518776 11.047770244457906 1 1 0
28 3 6 0.404798 13.117721036652899 5.087579530716614 9.777011132612486 0 0 0
738 74 6 0.404798 10.238114207043832 2.2716904282617607 12.046149123044527 0 1 0
477 48 5 0.404798 2.4335217537673466 7.676829051826605 14.140208725540273 1 0 0
797 80 5 0.404798 2.9400883266379023 1.7197605065533934 14.1397862837546 1 1 0
424 43 4 0.404798 14.599486699159858 1.7947470615386898 15.37199371946346 0 0 0
401 41 1 -0.091672 6.50335952802598 3.1235392623260365 16.288902769742677 0 0 0
481 49 1 -0.091672 6.918381939783089 9.186667560865054 16.427953231673403 0 0 0
406 41 2 -0.091672 5.684372232667209 4.195457656043592 16.036973235611352 0 0 0
407 41 5 0.404798 5.05922753011286 4.4022913154895145 14.838202711551045 0 0 0
10 1 10 -0.358962 5.062476033149833 5.9899380716613955 10.90187214351207 0 0 0
408 41 6 0.404798 5.543625884564229 5.233264704559562 17.0354124511204 0 0 0
405 41 8 -0.358962 6.6994516738486 1.0826509456257762 14.712571845441689 0 0 0
21 3 1 -0.091672 13.772217644840493 2.939025064936173 9.027810333226833 0 0 0
402 41 3 0.404798 7.129865922497916 2.9924751941244203 17.58104652728156 0 0 0
83 9 7 -0.358962 7.270215724996643 8.595657665559344 11.37756438549065 0 0 0
82 9 3 0.404798 6.853248010674895 8.889875895285924 10.299274861768675 0 0 0
409 41 9 -0.358962 4.499794958608585 4.717744043314824 13.83693890743731 0 0 0
404 41 4 0.404798 6.602333520014346 2.0364258930237438 15.377350203148985 0 0 0
740 74 10 -0.358962 10.41066089987353 3.1363240157660695 11.293811530336038 0 1 0
429 43 9 -0.358962 12.297014407908463 4.006798514155682 13.540005574064745 0 0 0
419 42 9 -0.358962 11.22837054648854 7.708297429964501 15.095436418879924 0 0 0
417 42 5 0.404798 10.82687083124327 7.513887831085308 13.976177573416225 0 0 0
418 42 6 0.404798 10.549126252765003 8.451135698646791 11.779440820106855 0 0 0
737 74 5 0.404798 10.399020079423696 1.488615383350589 14.369737215647193 0 1 0
505 51 8 -0.358962 14.702928913176631 7.51536618977921 14.565942272752501 0 0 0
473 48 7 -0.358962 1.4894118874823654 5.1479531671587315 10.138520763072906 1 0 0
421 43 1 -0.091672 14.208614238478068 2.823428367058022 16.238849261749646 0 0 0
813 82 7 -0.358962 9.036309219035951 5.703727636217152 17.432345643485224 0 0 0
501 51 1 -0.091672 13.910003972147408 9.109976766887431 16.44022076806652 0 0 0
22 3 3 0.404798 14.222576063868756 2.6218995144491553 10.347184830427446 0 0 0
426 43 2 -0.091672 13.39806067579358 3.775192458944799 15.919203056415416 0 0 0
427 43 5 0.404798 12.841819770551979 3.913225262071616 14.595600330106898 0 0 0
504 51 4 0.404798 14.254497964545193 8.16190159286833 15.430942607436743 0 0 0
30 3 10 -0.358962 12.903558046574053 5.871198194916031 10.60669078981265 0 0 0
428 43 6 0.404798 12.825877642471065 4.764205820908227 16.82634858837808 0 0 0
425 43 8 -0.358962 14.835228753999248 0.9768861283476806 14.542641757012756 0 0 0
103 11 7 -0.358962 14.958654231497476 8.805242953461825 11.283569610821797 0 0 0
102 11 3 0.404798 14.463932036604874 9.028124911828801 10.26683277843921 0 0 0
1 1 1 -0.091672 6.496398097108369 3.2153652121672565 9.32371000852669 0 0 0
101 11 1 -0.091672 13.784034496045875 9.276252743638295 9.072963949991731 0 0 0
410 41 10 -0.358962 5.656148083007222 6.018844264806002 17.842235853180966 0 0 0
502 51 3 0.404798 14.203604002232003 8.668051584656084 17.81496741542973 0 0 0
873 88 7 -0.358962 1.679641715756687 5.704362269186504 17.164849263670167 1 0 0
482 49 3 0.404798 7.399962285178303 9.124633574478938 17.738119168604605 0 0 0
731 74 1 -0.091672 9.25497099708589 0.07081599703865633 12.69700791686104 0 1 0
430 43 10 -0.358962 12.405263425404003 5.5700461374946775 17.512015236278426 0 0 0
833 84 7 -0.358962 16.062067628306433 5.739944109571625 17.30950689645676 0 0 0
486 49 2 -0.091672 6.0164788873527435 10.112476885669501 16.040242119628115 0 0 0
330 33 10 -0.358962 5.367097644022599 0.18603678582366168 10.504481044063429 0 1 0
791 80 1 -0.091672 2.2632182174587303 0.07304460960448972 12.50356995351687 1 1 0
487 49 5 0.404798 5.42684999089104 10.214466948226296 14.76783371439018 0 0 0
1278 128 6 0.404798 4.07811970173328 7.99186178076634 26.303434361406108 1 0 0
876 88 2 -0.091672 3.15282365523825 7.211406588244211 19.88331115017428 1 0 0
1196 120 2 -0.091672 3.2250025248127567 1.2507534812667924 20.126225602121064 1 1 0
1212 122 3 0.404798 10.02393733930997 6.200724270570359 25.613625982091648 0 0 0
1213 122 7 -0.358962 9.732826472205678 6.178224542148419 24.508723684328245 0 0 0
503 51 7 -0.358962 14.375908541804264 8.388151144033943 18.885734412886325 0 0 0
882 89 3 0.404798 7.760687978157378 9.134901628384203 24.637727551837372 0 0 0
811 82 1 -0.091672 9.979296122607426 6.0061527845069 19.825035329521935 0 0 0
814 82 4 0.404798 9.721961647146024 5.080703660165321 20.885348001272977 0 0 0
815 82 8 -0.358962 9.481979104621688 4.242676419932317 21.672027286983507 0 0 0
1137 114 5 0.404798 11.183939973459001 1.0945014526505716 21.388345361684582 0 1 0
820 82 10 -0.358962 11.013293782429507 8.889630335937982 18.25224194522699 0 0 0
871 88 1 -0.091672 2.5048099739822183 6.100324529840392 19.58924970330558 1 0 0
1598 160 6 0.404798 4.172125327544295 2.0481940542075594 26.421499278825575 1 1 0
1211 122 1 -0.091672 10.417113854885963 6.26111965683652 26.958665242218107 0 0 0
1136 114 2 -0.091672 10.587383496734686 0.9718107450887579 20.081324018923993 0 1 0
802 81 3 0.404798 7.534450856847368 2.553651419639266 24.98514340253957 0 0 0
879 88 9 -0.358962 4.080324402927429 7.922510117612944 22.232180648558735 1 0 0
1199 120 9 -0.358962 3.936104407430291 1.7619281941481093 22.53468914763755 1 1 0
816 82 2 -0.091672 10.83712941828095 7.030952229627224 19.975943632952983 0 0 0
812 82 3 0.404798 9.382285040720955 5.814684786232448 18.546454641226916 0 0 0
880 88 10 -0.358962 3.6551448892711 9.091287585848878 18.18634921193763 1 0 0
818 82 6 0.404798 11.012636267820499 8.028101164646692 19.022465594362142 0 0 0
1220 122 10 -0.358962 11.561411490595642 9.24931071747885 25.74246463904114 0 0 0
1540 154 10 -0.358962 11.326993596910391 3.3308875799683193 25.103167545697634 0 1 0
1538 154 6 0.404798 11.251320383578914 2.4217474659093616 25.839086226328934 0 1 0
483 49 7 -0.358962 7.786842830509165 9.127120157168553 18.83068869264471 0 0 0
1280 128 10 -0.358962 4.191918215520822 8.827269163782297 25.488018222730183 1 0 0
1198 120 6 0.404798 3.673361541437015 2.229021958974284 19.139274975470787 1 1 0
883 89 7 -0.358962 8.154534291061076 8.947383208532276 25.68451418648451 0 0 0
885 89 8 -0.358962 7.637791568820423 7.848546452951703 21.411016399994125 0 0 0
1600 160 10 -0.358962 4.408025343458491 2.9467831368070847 25.694667817267025 1 1 0
878 88 6 0.404798 3.454812512248558 8.175375711091311 18.88154213751458 1 0 0
1138 114 6 0.404798 10.715278570279441 2.1142891448406056 19.261388884147593 0 1 0
872 88 3 0.404798 2.0093311016589412 5.911769613934787 18.274221003015196 1 0 0
877 88 5 0.404798 3.6889332546728286 7.634282771151829 21.16164923698547 1 0 0
1197 120 5 0.404798 3.6309616532829394 1.5399821595513201 21.47106349133663 1 1 0
801 81 1 -0.091672 6.979368113871833 2.9935268251013274 23.737586568212105 0 0 0
881 89 1 -0.091672 7.192516398972422 9.400891013431849 23.377051674394068 0 0 0
806 81 2 -0.091672 6.524876651606698 4.266151322548528 23.575981286361863 0 0 0
807 81 5 0.404798 5.980032729795809 4.75671908172765 22.351231477509714 0 0 0
904 91 4 0.404798 15.20255393410123 8.245078335004633 22.618378567220702 0 0 0
808 81 6 0.404798 6.505046787827917 5.171060956773384 24.66448118782359 0 0 0
810 81 10 -0.358962 6.431437976828112 5.750625678048859 25.676007581430536 0 0 0
803 81 7 -0.358962 7.886295662982786 2.161530564999296 26.016998693022668 0 0 0
809 81 9 -0.358962 5.457806427057724 5.094144238372602 21.364804501762155 0 0 0
804 81 4 0.404798 7.044603321355405 2.1682569997870123 22.530646232898135 0 0 0
805 81 8 -0.358962 7.0763134204191225 1.570671950261146 21.575784186806825 0 0 0
884 89 4 0.404798 7.473450627037835 8.546923919574294 22.322939321270677 0 0 0
1272 128 3 0.404798 2.4242424362379174 5.749713683229394 25.582767333596397 1 0 0
828 83 6 0.404798 14.003917108552546 5.129701764113038 23.96951790751944 0 0 0
830 83 10 -0.358962 14.161320211083616 5.855738740615175 24.846477342955097 0 0 0
829 83 9 -0.358962 12.830189406015714 4.5026898890874145 20.73153951021708 0 0 0
903 91 7 -0.358962 15.768463896376534 9.204124376040498 26.00920657825414 0 0 0
403 41 7 -0.358962 7.586863884916318 2.8963448979410575 18.621929689224864 0 0 0
1139 114 9 -0.358962 11.627555707946424 1.1885698188735165 22.48366655995646 0 1 0
1218 122 6 0.404798 11.39324285312999 8.396970948517417 26.542360819707834 0 0 0
817 82 5 0.404798 11.479294900404907 7.295646151035736 21.17848287632443 0 0 0
824 83 4 0.404798 14.65067547075703 1.854629079853809 22.35586963231361 0 0 0
1140 114 10 -0.358962 10.776837980562489 3.011248081437298 18.5174259245263 0 1 0
825 83 8 -0.358962 14.823269436157963 0.9405118863146854 21.65709546163518 0 0 0
823 83 7 -0.358962 15.880726825813323 2.5701868015267255 25.47886354252227 0 0 0
822 83 3 0.404798 15.274418641666138 2.721962757245923 24.50960509799149 0 0 0
874 88 4 0.404798 2.03118789229484 5.240368187542599 20.609384347406234 1 0 0
821 83 1 -0.091672 14.51849245704665 2.8992231981798064 23.30305719395512 0 0 0
901 91 1 -0.091672 14.900529529740291 9.28772058374937 23.59703463847317 0 0 0
902 91 3 0.404798 15.510380446619035 9.249039476041094 24.88633206151708 0 0 0
826 83 2 -0.091672 13.946593471601293 4.103642876745475 23.003679244169664 0 0 0
827 83 5 0.404798 13.335098147941839 4.350431081681814 21.757581385374518 0 0 0
905 91 8 -0.358962 15.325184577273058 7.39328133221184 21.821377771284595 0 0 0
819 82 9 -0.358962 12.031148042225471 7.596166959191438 22.15778414197084 0 0 0
955 96 8 -0.358962 1.7913719560741028 10.107690743876734 21.1239546527054 1 0 0
423 43 7 -0.358962 15.113137822818535 2.5173064473817433 18.663557213443184 0 0 0
1200 120 10 -0.358962 3.9631849070422263 2.9982444191360553 18.318472627016096 1 1 0
1191 120 1 -0.091672 2.521432262992178 0.12777585561018362 19.82826306900771 1 1 0
1271 128 1 -0.091672 3.1276169676752286 5.870335701008006 26.86511779520402 1 0 0
1130 113 10 -0.358962 5.754006106265696 0.21119403809772533 24.6705836638631 0 1 0
1532 154 3 0.404798 9.773933443608428 0.027121484435810497 25.334442079189248 0 1 0
1531 154 1 -0.091672 10.456311123158272 0.18296340079290516 26.53632323517841 0 1 0
1536 154 2 -0.091672 11.158690618523575 1.3138350047493665 26.755886179908927 0 1 0
906 91 2 -0.091672 14.152275309167804 10.316409148272346 23.285753286254508 0 0 0
1203 121 7 -0.358962 8.655991632827323 2.649816335557061 33.37865431866235 0 0 0
1675 168 8 -0.358962 3.6458501970697768 3.8706479192041194 35.93347804563654 1 0 0
1202 121 3 0.404798 8.333710700053892 2.799966262568475 32.28429618383632 0 0 0
1936 194 2 -0.091672 11.881277655761203 1.1700277422778427 34.420262124792664 0 1 0
1676 168 2 -0.091672 4.336913245204581 6.896094087199797 34.501924011068326 1 0 0
1285 129 8 -0.358962 8.522035250188242 7.254617862648902 29.35706610806002 0 0 0
1284 129 4 0.404798 8.259438259113882 8.03481312841363 30.151769602380817 0 0 0
1996 200 2 -0.091672 4.785077230824319 0.72828139044778 34.82450344666017 1 1 0
1612 162 3 0.404798 10.669620698229036 5.902809487965635 33.061859376471524 0 0 0
1613 162 7 -0.358962 10.114624544652667 5.743666861733511 32.11838476276059 0 0 0
1274 128 4 0.404798 2.8609466938542267 4.78345004900635 27.723639376949933 1 0 0
1617 162 5 0.404798 12.346392859543485 7.599698268140916 35.94704065954423 0 0 0
1215 122 8 -0.358962 10.043671969080716 4.127639987432178 28.35548545216311 0 0 0
1611 162 1 -0.091672 11.249363370433414 6.084294985644 34.356562337134 0 0 0
1614 162 4 0.404798 11.033129240117379 5.066947404133565 35.24246581874292 0 0 0
1938 194 6 0.404798 11.969680662064452 2.1695652085692534 33.401636871932006 0 1 0
1302 131 3 0.404798 15.987764045358206 9.381080012008555 31.81872747004549 0 0 0
1671 168 1 -0.091672 3.660973371756067 5.815015006822274 34.253376555279274 1 0 0
1674 168 4 0.404798 3.6483657764284834 4.744959185781627 35.17644683481738 1 0 0
1205 121 8 -0.358962 8.111896382292054 0.9120047701907051 29.2583978554404 0 0 0
1616 162 2 -0.091672 11.916339009972916 7.277663051724963 34.59931506849112 0 0 0
1282 129 3 0.404798 8.544452762468183 8.94427300505257 32.37766524942133 0 0 0
1279 128 9 -0.358962 4.993330717649002 7.0964553105534325 29.620498069078415 1 0 0
1599 160 9 -0.358962 4.919897687363118 1.5274784215194785 29.800742901526014 1 1 0
1204 121 4 0.404798 7.9162986037259815 1.7800076183788416 29.99836566648964 0 0 0
1596 160 2 -0.091672 3.904044453854567 1.0560249236781918 27.40636327147596 1 1 0
1305 131 8 -0.358962 15.467190287627652 7.435182179315792 29.014194887461787 0 0 0
1678 168 6 0.404798 4.578755196592879 7.879354128779002 33.54114473237451 1 0 0
1680 168 10 -0.358962 4.818596626291553 8.64204059121909 32.70363107904483 1 0 0
1998 200 6 0.404798 5.110855978389795 1.8248490308173317 33.940164887286066 1 1 0
2000 200 10 -0.358962 5.443571988339437 2.63641610822212 33.204017620279124 1 1 0
1672 168 3 0.404798 3.0445765720452593 5.586069032458956 32.94785544236606 1 0 0
1275 128 8 -0.358962 2.6216086275442447 3.906786011749369 28.46479430222704 1 0 0
1277 128 5 0.404798 4.496878992438715 7.01415566399898 28.570034541905336 1 0 0
1618 162 6 0.404798 12.287024383291914 8.19660776216514 33.512710091246014 0 0 0
1223 123 7 -0.358962 15.822073774313061 2.716601049383206 32.90226625626477 0 0 0
1597 160 5 0.404798 4.4667007206093565 1.2571388204123082 28.739174143701597 1 1 0
1201 121 1 -0.091672 7.7959633572107006 2.9157199383029635 30.951150477982253 0 0 0
1281 129 1 -0.091672 7.934099670796531 8.977146813415755 31.048767908041647 0 0 0
1931 194 1 -0.091672 11.046791306090256 0.07437787455421765 34.31126731769023 0 1 0
1206 121 2 -0.091672 7.239076765321609 4.152580106857845 30.668154418555496 0 0 0
1207 121 5 0.404798 6.666820276750405 4.2872950395441425 29.453732833510138 0 0 0
1208 121 6 0.404798 7.094609294213479 5.197663654570116 31.660884549673536 0 0 0
1210 121 10 -0.358962 7.0306500008747745 5.94458884291778 32.52425846253018 0 0 0
1283 129 7 -0.358962 8.94971182106122 9.008598070176829 33.466459406573435 0 0 0
1209 121 9 -0.358962 6.2032017120047325 4.398752063634146 28.378165502199167 0 0 0
1539 154 9 -0.358962 12.367844002076758 1.5352765017980254 29.066869626676784 0 1 0
1303 131 7 -0.358962 16.552989487293097 9.186452546602387 32.82323182310094 0 0 0
1214 122 4 0.404798 10.174304090441295 5.10817865642907 27.712353903664532 0 0 0
1537 154 5 0.404798 11.805211225874448 1.4598055265075345 28.07685743425615 0 1 0
1229 123 9 -0.358962 13.473026135043142 4.636995239687412 27.84636769747101 0 0 0
1620 162 10 -0.358962 12.629692450248877 8.943859764120827 32.680161800601276 0 0 0
1629 163 9 -0.358962 13.954348449940035 4.402190717180372 35.325952020928405 0 0 0
1217 122 5 0.404798 11.621987056417414 7.350681281797538 28.754824396202157 0 0 0
1219 122 9 -0.358962 11.878048186537416 7.5444422247584635 29.87889129817819 0 0 0
1940 194 10 -0.358962 11.973240137549539 3.003941905281611 32.58429460676629 0 1 0
1677 168 5 0.404798 5.017274366621306 7.080501408479271 35.73571064606317 1 0 0
1222 123 3 0.404798 15.436194175051519 2.8717568951354178 31.82533137527783 0 0 0
1304 131 4 0.404798 15.41562362257033 8.336954740524227 29.772107027209152 0 0 0
1224 123 4 0.404798 15.175826690826844 2.062729447626713 29.601933876016204 0 0 0
1286 129 2 -0.091672 7.201247736005177 10.083973458528959 30.605966752873375 0 0 0
1221 123 1 -0.091672 14.95111566494757 3.1404764926812763 30.522246668331093 0 0 0
1301 131 1 -0.091672 15.220093051902602 9.40746590512237 30.66288847055588 0 0 0
1226 123 2 -0.091672 14.49816832155641 4.333206986461446 30.21754403352016 0 0 0
1227 123 5 0.404798 13.960459534913715 4.566762041585041 28.889635777244123 0 0 0
1225 123 8 -0.358962 15.347077762545982 1.2442558786330917 28.839577212797625 0 0 0
1228 123 6 0.404798 14.437725853028738 5.364639107461686 31.17936436822491 0 0 0
1230 123 10 -0.358962 14.46816232882703 6.168015408155971 32.00121090461731 0 0 0
1609 161 9 -0.358962 6.926207858955312 4.31932296629247 35.30748473383507 0 0 0
1937 194 5 0.404798 12.451558076205243 1.388546121773395 35.69769438540123 0 1 0
1276 128 2 -0.091672 3.90445246998139 6.951843393053449 27.25539386247728 1 0 0
1216 122 2 -0.091672 11.180951896154351 7.258959260880059 27.42157227402577 0 0 0
1550 155 10 -0.358962 13.718831607478688 0.05622425002473517 32.05938061009517 0 1 0
1615 162 8 -0.358962 10.74712977175732 4.204010667559457 36.02728581411864 0 0 0
1705 171 8 -0.358962 16.028603243298853 7.584762309667157 36.04655170751738 0 0 0
1997 200 5 0.404798 5.233659587380491 0.8823478295364366 36.06653894317304 1 1 0
156 16 2 -0.091672 2.2250847492150196 13.362360222060705 5.446168298267936 1 0 0
92 10 3 0.404798 8.308734112314845 12.355477528558021 3.995717050379289 0 0 0
93 10 7 -0.358962 7.688236452594 12.363963767883671 3.023763828533398 0 0 0
1762 177 3 0.404798 6.260012182905414 15.48046992177982 3.405456064419705 0 0 1
97 10 5 0.404798 10.20808029037668 13.519743340666219 6.985611984356779 0 0 0
91 10 1 -0.091672 8.98344450329739 12.382426817425857 5.23540438260643 0 0 0
94 10 4 0.404798 8.871717626293457 11.31485189156853 6.166977446675432 0 0 0
233 24 7 -0.358962 0.6440267680129509 17.59141520237284 2.9535837246837535 1 0 0
151 16 1 -0.091672 1.6618242585929415 12.141457228083015 5.211526867746948 1 0 0
1763 177 7 -0.358962 6.798418755733006 15.374372230314684 4.429271138557832 0 0 1
152 16 3 0.404798 1.0507376327643703 11.877905229260382 3.9809242563607774 1 0 0
159 16 9 -0.358962 3.1423545428898962 13.578344427470824 7.840808721158632 1 0 0
1865 187 8 -0.358962 13.614024585264762 19.682036509190617 0.6869232520573046 0 0 1
96 10 2 -0.091672 9.578331516695325 13.49175930663479 5.69998114864446 0 0 0
158 16 6 0.404798 2.3892229928522637 14.401528406018574 4.44706628738326 1 0 0
1839 184 9 -0.358962 2.745834946369739 20.20208289756159 0.7201895103639704 1 0 1
99 10 9 -0.358962 10.746616204216748 13.541901163688356 8.00831256055879 0 0 0
157 16 5 0.404798 2.797363639601502 13.517466532956048 6.7284247398458925 1 0 0
1764 177 4 0.404798 6.135859776076199 14.52808836113367 1.221284344563083 0 0 1
154 16 4 0.404798 1.5908118864177072 11.203730703584496 6.2571094299883905 1 0 0
232 24 3 0.404798 0.9627365150045549 17.960165393053508 4.015290532066094 1 0 0
1688 169 6 0.404798 4.56675210261266 11.481607556465898 2.387923752525637 0 0 1
1690 169 10 -0.358962 4.360921561288469 12.31581941186421 3.2311378774319808 0 0 1
98 10 6 0.404798 9.74973781932605 14.529911301179984 4.771548769834152 0 0 0
165 17 8 -0.358962 6.78457489499289 13.464523956206945 7.7788443120083395 0 0 0
1761 177 1 -0.091672 5.702134842487503 15.553273386497802 2.1284850977609766 0 0 1
1787 179 5 0.404798 11.511346285868076 17.10267349099835 0.4012204484397088 0 0 1
100 10 10 -0.358962 9.96876500241442 15.296821430741016 3.902324059370535 0 0 0
176 18 2 -0.091672 9.442455524481074 19.597776008806626 5.82717011993077 0 0 0
236 24 2 -0.091672 2.0678841808889348 19.507372710773684 5.473790643131411 1 0 0
172 18 3 0.404798 8.002636405884303 18.51270180598467 4.213899055755881 0 0 0
173 18 7 -0.358962 7.339460703509054 18.502341074427576 3.275787707480924 0 0 0
1788 179 6 0.404798 11.957078753813866 17.648658835428908 2.7019600513659254 0 0 1
171 18 1 -0.091672 8.74039890344272 18.55571222809762 5.439407850582855 0 0 0
174 18 4 0.404798 8.653339763077822 17.414209865319652 6.287756477651052 0 0 0
175 18 8 -0.358962 8.695349539975913 16.44094871972792 6.916883214851091 0 0 0
231 24 1 -0.091672 1.488099611169151 18.303104665655646 5.26371616409229 1 0 0
1775 178 8 -0.358962 7.866776431379507 17.045274297453606 0.2115799742904164 0 0 1
87 9 5 0.404798 5.297178214581023 10.67035529464374 7.339517036720378 0 0 0
239 24 9 -0.358962 2.87502097770037 19.90385052074491 7.886865105378774 1 0 0
155 16 8 -0.358962 1.453934651085442 10.475273794137324 7.13224797660882 1 0 0
1686 169 2 -0.091672 4.899901703335882 10.38175515805152 1.509308828167913 0 0 1
245 25 8 -0.358962 6.403818682664052 19.757457820331616 7.800658097877823 0 0 0
167 17 5 0.404798 4.718933799766656 16.495776245062906 7.495925940312502 0 0 0