LAMMPS data file via write_data, version 29 Sep 2021, timestep = 5000000

1620 atoms
10 atom types
1458 bonds
9 bond types
1620 angles
10 angle types
1944 dihedrals
12 dihedral types

0 31.303 xlo xhi
0 31.303 ylo yhi
0 31.303 zlo zhi

Masses

1 12.01
2 12.01
3 12.01
4 12.01
5 12.01
6 12.01
7 14.01
8 14.01
9 14.01
10 14.01

Bond Coeffs # harmonic

1 400 1.426
2 400 1.426
3 400 1.426
4 400 1.426
5 549 1.34
6 650 1.16
7 650 1.16
8 650 1.16
9 650 1.16

Angle Coeffs # harmonic

1 70 116.8
2 70 116.8
3 70 121.6
4 70 121.6
5 70 121.6
6 70 121.6
7 70 178.9
8 70 178.9
9 70 178.9
10 70 178.9

Dihedral Coeffs # opls

1 0 0 0 0
2 0 0 0 0
3 0 0 0 0
4 0 0 0 0
5 0 0 0 0
6 0 0 0 0
7 0 0 0 0
8 0 0 0 0
9 0 14 0 0
10 0 14 0 0
11 0 14 0 0
12 0 14 0 0

Atoms # full

597 60 5 0.404798 2.7169252302351765 7.6060194911327 5.240505627857684 -1 -1 1
1419 142 9 -0.358962 6.0031712101872 1.4618242415904965 2.205628909585953 -1 1 1
596 60 2 -0.091672 2.647988724132051 8.767392901545378 4.4585828582914155 -1 -1 1
594 60 4 0.404798 2.8580727960427237 9.974983170755522 6.4746238922029455 -1 -1 1
1418 142 6 0.404798 4.608288907036706 2.4446354843194675 5.2548189089567225 -1 1 1
966 97 2 -0.091672 0.5033037260113039 5.528876983730147 1.3220567738586335 1 0 2
970 97 10 -0.358962 2.3450209629793726 5.465757269615135 3.1646253397767983 1 0 2
1417 142 5 0.404798 5.2763337818696 1.6915158406250081 3.08001389029806 -1 1 1
960 96 10 -0.358962 0.6333040310215963 0.7428707309662426 1.8095758227152074 1 0 0
599 60 9 -0.358962 2.706604965294134 6.651898807601355 5.900162512381329 -1 -1 1
1420 142 10 -0.358962 4.825635050650716 2.668119066740903 6.37214415183533 -1 1 1
1416 142 2 -0.091672 4.285732215179197 2.1120737429218446 3.960477658089973 -1 1 1
690 69 10 -0.358962 4.8266983173834275 4.863569189197214 1.3749677656511028 1 0 0
1411 142 1 -0.091672 3.074273266774007 2.217413452274722 3.3975649163709436 -1 1 1
1412 142 3 0.404798 1.9173413282522882 2.583863431888844 4.183362918873218 -1 1 1
1414 142 4 0.404798 2.9880493973612836 2.118967323613578 1.9774601768948692 -1 1 1
1415 142 8 -0.358962 2.989269962242264 2.168938378186423 0.8185376635003282 -1 1 1
1413 142 7 -0.358962 0.971053741127148 2.6546096559546695 4.850547098832287 -1 1 1
828 83 6 0.404798 6.434952425604932 8.274316311589025 0.9537368545011434 1 1 0
381 39 1 -0.091672 11.459467815734078 2.3138467741015494 0.2216880802879728 0 -1 1
968 97 6 0.404798 1.5288148891370674 5.460615875191654 2.3403795034894297 1 0 2
205 21 8 -0.358962 13.635641767865565 7.151357735229966 6.499603446011367 -1 0 1
830 83 10 -0.358962 5.775517198382805 7.635798084210677 0.2444839772656654 1 1 0
20 2 10 -0.358962 7.717727703708276 1.2457149569531405 4.763626580050253 -2 -1 0
598 60 6 0.404798 2.4009519794575893 8.673043614937345 3.057306952815548 -1 -1 1
773 78 7 -0.358962 7.307285723161578 5.17322797722858 5.907365111767987 -1 2 -2
772 78 3 0.404798 7.832566384943805 5.944829383532234 6.596067847533528 -1 2 -2
826 83 2 -0.091672 7.248645801557162 9.075567399907058 1.8895197727417141 1 1 0
579 58 9 -0.358962 15.534868766376428 4.086796215017262 4.291727441756331 0 1 1
688 69 6 0.404798 4.8050055749634195 4.723778536115952 0.2236259496709346 1 0 0
1299 130 9 -0.358962 7.67594507361559 9.868249854151665 6.887186298036171 1 0 1
208 21 6 0.404798 12.555258113751396 10.23259003788912 2.8146424226521476 -1 0 1
201 21 1 -0.091672 12.427698200362807 8.75172340853644 4.822519255442225 -1 0 1
14 2 4 0.404798 10.419727745317402 5.055468379945164 3.7788659298275484 -2 -1 0
1243 125 7 -0.358962 1.8749313845447662 1.0665610274356674 7.413358431481414 0 1 0
821 83 1 -0.091672 6.739406391916413 10.015749911324752 2.6971905342478175 1 1 0
827 83 5 0.404798 8.685240786165705 8.943423329778934 1.9098964924909843 1 1 0
202 21 3 0.404798 11.037587941367946 8.87122963825684 4.997638524714732 -1 0 1
829 83 9 -0.358962 9.822662008803213 8.718608480607651 1.9463823345337152 1 1 0
17 2 5 0.404798 8.361102290350438 3.4869612738851985 2.3457078648002323 -2 -1 0
19 2 9 -0.358962 7.803103467193181 3.771654692244418 1.3693949315339922 -2 -1 0
18 2 6 0.404798 8.303720608668435 2.1063640099994645 4.252260366368531 -2 -1 0
207 21 5 0.404798 14.437755063996327 9.194640462253444 3.7077846659087044 -1 0 1
600 60 10 -0.358962 2.155555341120504 8.554396044105028 1.9297861353953596 -1 -1 1
386 39 2 -0.091672 11.981193674222402 1.0933702847864752 0.4056425810071523 0 -1 1
16 2 2 -0.091672 8.875786588952154 3.2029907571328327 3.6345719700993775 -2 -1 0
591 60 1 -0.091672 2.5579507790230753 9.911653745301724 5.150074190676687 -1 -1 1
384 39 4 0.404798 11.97952938734394 3.4055003823060095 0.9072136239705827 0 -1 1
389 39 9 -0.358962 13.967797131530942 0.7908611395700343 1.9587727396991066 0 -1 1
999 100 9 -0.358962 13.486672348079694 3.7669631742125826 6.5442536050100015 -2 -1 -1
11 2 1 -0.091672 9.863722861482277 3.8471888436988992 4.270646444428076 -2 -1 0
12 2 3 0.404798 10.211023301686932 3.478549674221676 5.5840113380758964 -2 -1 0
387 39 5 0.404798 13.0755802213515 0.9419634884741139 1.2330199863776743 0 -1 1
1440 144 10 -0.358962 13.3275554315215 7.1737665702999 1.5602042675681171 -1 -1 1
203 21 7 -0.358962 9.904255196513516 8.859302429914749 5.244649887001672 -1 0 1
206 21 2 -0.091672 13.081507639656213 9.358716362799452 3.8226728839549193 -1 0 1
209 21 9 -0.358962 15.584747066115112 9.130213269580949 3.546979009882059 -1 0 1
204 21 4 0.404798 13.089558108905564 7.8392120269647885 5.741811193520534 -1 0 1
385 39 8 -0.358962 12.336242549624266 4.315202166800128 1.5323522882028786 0 -1 1
15 2 8 -0.358962 10.857954708041646 6.028899790721824 3.325006482934815 -2 -1 0
13 2 7 -0.358962 10.518613577228075 3.227548476960753 6.6739593245155495 -2 -1 0
967 97 5 0.404798 0.7782695294873065 4.934452425960262 0.13288872211835706 1 0 2
595 60 8 -0.358962 3.0295497932055255 9.957505986323746 7.6217464465163705 -1 -1 1
1438 144 6 0.404798 13.391575932879823 6.880907945122216 0.4396083542026569 -1 -1 1
822 83 3 0.404798 5.400265628797223 10.345763957450092 2.4217504526887463 1 1 0
980 98 10 -0.358962 10.864478790828713 0.09099207887183769 3.541520846930399 0 1 1
997 100 5 0.404798 13.852112629061805 4.200699062144651 7.556146173339885 -2 -1 -1
771 78 1 -0.091672 8.158457314909896 6.836809637249518 7.657742191149917 -1 2 -2
580 58 10 -0.358962 15.384924367059048 3.212197520785663 0.26638194032084317 0 1 1
691 70 1 -0.091672 3.9988893203956324 7.585564229371166 13.915032584774215 0 0 0
696 70 2 -0.091672 3.0430608147088276 8.249816066683053 13.251133974826006 0 0 0
693 70 7 -0.358962 6.416312403963428 7.234631383066562 13.136578477162331 0 0 0
698 70 6 0.404798 3.412563574261762 8.885965849874951 12.032391719154827 0 0 0
692 70 3 0.404798 5.303488735093311 7.381218374720763 13.429385093146566 0 0 0
697 70 5 0.404798 1.814791138898587 8.759862820913455 13.799725704793543 0 0 0
1425 143 8 -0.358962 4.85424907559649 4.198928747897165 14.949441580818688 0 0 0
1424 143 4 0.404798 3.778645948036048 3.7646492710925354 14.95834300235618 0 0 0
774 78 4 0.404798 9.508705628784531 7.2706904926518625 7.88668576607359 -1 2 -2
700 70 10 -0.358962 3.7304090210758196 9.418660576630154 11.052182257072133 0 0 0
1069 107 9 -0.358962 5.165559357668347 5.578108538573908 10.987605951673224 2 -1 -2
1426 143 2 -0.091672 1.506799461428452 3.6783835482755287 13.973604052921301 0 0 0
1064 107 4 0.404798 6.681234569460341 3.186603842838117 9.204507066221572 2 -1 -2
1429 143 9 -0.358962 2.014745836559748 5.463819651670914 12.147600301532831 0 0 0
1067 107 5 0.404798 4.828526043545673 4.495133401275396 10.744350155461568 2 -1 -2
1421 143 1 -0.091672 2.4007705429806374 3.3741019604709117 14.924302964137837 0 0 0
1068 107 6 0.404798 3.248239034617234 2.7721367616546426 10.65475246044274 2 -1 -2
1070 107 10 -0.358962 2.1800674997048675 2.3644184366102694 10.850648490422804 2 -1 -2
1066 107 2 -0.091672 4.547336323736375 3.211411524962835 10.308722772561506 2 -1 -2
1061 107 1 -0.091672 5.443074291854302 2.5288302042507764 9.582543576077121 2 -1 -2
1427 143 5 0.404798 1.8119792341081125 4.608944631181856 12.905013263679777 0 0 0
1313 132 7 -0.358962 5.346420088847655 0.6415789399705514 12.377919944334344 0 -1 0
699 70 9 -0.358962 0.7909218656445656 9.144932497637285 14.185747780248427 0 0 0
778 78 6 0.404798 5.852024321252761 6.804666201555459 8.306745306040991 -1 2 -2
1062 107 3 0.404798 5.03921676043591 1.269699517998586 9.06425439393952 2 -1 -2
1065 107 8 -0.358962 7.633546410632761 3.751190208257527 8.858177180149498 2 -1 -2
720 72 10 -0.358962 0.38549141984785196 4.131238437305558 9.175898336841636 0 0 -1
1063 107 7 -0.358962 4.750076816820629 0.2555704190911103 8.58099437199769 2 -1 -2
780 78 10 -0.358962 4.794038216662462 6.347146727413534 8.176586549584199 -1 2 -2
1028 103 6 0.404798 13.172156187918151 5.100153558178572 14.903963182449054 -1 1 2
694 70 4 0.404798 3.740757914043273 7.0680622968867555 15.278053272759587 0 0 0
35 4 8 -0.358962 11.546269551729745 1.2332702874200578 14.437223867522434 -1 -1 1
1120 112 10 -0.358962 8.449432336842188 1.5566142789723527 13.143665945264072 0 0 1
776 78 2 -0.091672 7.158153214594877 7.334088825439105 8.397813207185811 -1 2 -2
777 78 5 0.404798 7.452696067361011 8.006959940365256 9.646367328812572 -1 2 -2
779 78 9 -0.358962 7.807578181505593 8.384462876188845 10.684225798477874 -1 2 -2
1461 147 1 -0.091672 10.498542434104843 9.4491466986705 12.772853059949448 0 1 0
1022 103 3 0.404798 15.082770482751584 7.044128061425595 15.523779026904167 -1 1 2
1021 103 1 -0.091672 15.45572369892631 5.909394606462814 14.691786373659658 -1 1 2
1462 147 3 0.404798 10.436565508144126 9.798877468290918 11.350275876565265 0 1 0
37 4 5 0.404798 14.80527745559469 0.11403453451329086 15.113953329619711 -1 -1 1
930 93 10 -0.358962 13.485128105921348 9.312185590209648 9.849247399062337 0 -1 2
1465 147 8 -0.358962 12.575396442377636 8.128306529592324 13.604468706135677 0 1 0
1464 147 4 0.404798 11.659436223531742 8.744675276111643 13.248510219261 0 1 0
1026 103 2 -0.091672 14.483892595224379 5.08411299624398 14.279409661083102 -1 1 2
186 19 2 -0.091672 10.471243650083885 0.03821430355794978 8.654245369637215 1 1 -1
1468 147 6 0.404798 8.279118147920546 10.290021164972426 13.354509978607734 0 1 0
1112 112 3 0.404798 8.911413677211607 5.046281202772944 13.161829663985053 0 0 1
1242 125 3 0.404798 0.8465617753220758 0.934488609270425 7.933563018789317 0 1 0
1118 112 6 0.404798 8.281836148684498 2.468612605331115 13.840638369752785 0 0 1
1467 147 5 0.404798 9.794377497215878 9.589943403738516 15.016785702271562 0 1 0
1116 112 2 -0.091672 7.97919571790976 3.4666184849672232 14.74516847709475 0 0 1
1113 112 7 -0.358962 9.283576138093306 5.402863297884722 12.122625974512987 0 0 1
1000 100 10 -0.358962 12.345696211040037 6.080492366802929 10.028475692296002 -2 -1 -1
719 72 9 -0.358962 0.5930537204658419 8.409453399631794 9.090013549292621 0 0 -1
189 19 9 -0.358962 11.814419357251484 1.5470658037019143 10.197818320751004 1 1 -1
1466 147 2 -0.091672 9.50673255864614 9.70569517447788 13.636621511695278 0 1 0
1030 103 10 -0.358962 12.114182739429548 5.0769651239141345 15.379099406517492 -1 1 2
187 19 5 0.404798 11.211685349952468 0.8685221011114261 9.475398679262968 1 1 -1
991 100 1 -0.091672 15.441782689122924 4.528733792146055 9.40282059779546 -2 -1 -1
1114 112 4 0.404798 7.957712794388625 5.841851856428328 15.186587373190653 0 0 1
1111 112 1 -0.091672 8.35973326140658 4.713655869717562 14.435832206291593 0 0 1
998 100 6 0.404798 13.166089033042638 5.424706601811995 9.536032160891974 -2 -1 -1
34 4 4 0.404798 12.242288868303618 0.397717630911871 14.033480428710691 -1 -1 1
996 100 2 -0.091672 14.222480605347405 4.673280318209442 8.866156168286789 -2 -1 -1
775 78 8 -0.358962 10.508089532615022 7.7324519959402815 8.252210190242911 -1 2 -2
1428 143 6 0.404798 0.20813319775908934 3.038055951656071 13.910234828975327 0 0 0
1463 147 7 -0.358962 10.490526638559068 10.186884231178448 10.25842472223058 0 1 0
1027 103 5 0.404798 14.66003024660257 4.024822067154392 13.401289303210381 -1 1 2
1029 103 9 -0.358962 14.815267892036365 3.1510552155116383 12.654273398919786 -1 1 2
928 93 6 0.404798 13.828945074702588 10.420059383752111 9.846906972625371 0 -1 2
1510 151 10 -0.358962 5.111022881768215 9.78064743463457 23.05493032464532 1 -2 1
266 27 2 -0.091672 0.2411811031425993 6.351520839634411 20.5011534237504 1 1 0
1511 152 1 -0.091672 5.1823179930338314 5.338422538554399 23.254624968562638 0 -1 0
267 27 5 0.404798 1.6120451247531224 6.463741346786798 20.49262435730863 1 1 0
264 27 4 0.404798 0.322535877208104 5.052157316216582 18.52492266589205 1 1 0
614 62 4 0.404798 4.776621000624246 0.8585755387027512 20.39255460350653 -1 1 2
1423 143 7 -0.358962 1.7723311347569752 1.8293236675861066 16.814524895326254 0 0 0
1049 105 9 -0.358962 1.98479820017103 1.9880812134139452 20.304608710515886 1 3 0
1047 105 5 0.404798 1.129253820703789 2.0938103259909213 21.080794980834096 1 3 0
269 27 9 -0.358962 2.766414159694787 6.569913131752468 20.45067594182834 1 1 0
793 80 7 -0.358962 12.164430142903145 10.202606018572926 19.294015615508197 -1 -2 0
611 62 1 -0.091672 4.856672056662045 1.1836842188424 18.985277213112635 -1 1 2
1495 150 8 -0.358962 0.4483273086629564 9.743694884824293 18.020960792927234 1 1 0
1023 103 7 -0.358962 14.95359776031036 7.959283001690304 16.224782467598008 -1 1 2
613 62 7 -0.358962 4.367112907022646 3.6249706286418992 18.312924419608994 -1 1 2
612 62 3 0.404798 4.592389717692038 2.516147173261414 18.568582186584756 -1 1 2
265 27 8 -0.358962 0.8898460079678912 4.673411009438383 17.586674061416044 1 1 0
1512 152 3 0.404798 6.183958738426577 6.241960908904779 22.773453455967797 0 -1 0
1518 152 6 0.404798 6.1118436556241305 3.5778613019868404 22.03959917266805 0 -1 0
615 62 8 -0.358962 4.755936761810774 0.6924967995555592 21.54041783912565 -1 1 2
1520 152 10 -0.358962 6.943552272554049 3.1119452342265936 21.37870359767825 0 -1 0
695 70 8 -0.358962 3.5084256244186838 6.6760602758224525 16.344803533151158 0 0 0
498 50 6 0.404798 6.37541327747177 9.201915271140736 19.52167952489255 -1 0 0
950 95 10 -0.358962 7.67073572411064 5.454335972807666 18.7754184697623 1 1 0
1513 152 7 -0.358962 6.952489121443195 6.948675430739893 22.267967915355026 0 -1 0
1499 150 9 -0.358962 3.1694997885042633 10.177267799043065 20.94252832838053 1 1 0
1422 143 3 0.404798 2.0120614928980416 2.4977252602626527 15.897263396711281 0 0 0
948 95 6 0.404798 8.721837377016135 5.0995038548870175 19.11435722122433 1 1 0
1119 112 9 -0.358962 7.0418398243101885 2.911764557596962 17.115284680310914 0 0 1
500 50 10 -0.358962 5.487843174171315 8.489412003262059 19.297718830930116 -1 0 0
949 95 9 -0.358962 10.486509127526752 2.14599485210623 18.91769931396303 1 1 0
39 4 9 -0.358962 15.212639265040712 0.6445261232575747 16.06170593532457 -1 -1 1
618 62 6 0.404798 5.482646214388936 0.3324755767077676 16.821094550643302 -1 1 2
840 84 10 -0.358962 15.296447144760847 3.509501225366214 22.571325066448644 -1 0 0
792 80 3 0.404798 13.185331678077945 9.757779932418865 19.6188075256675 -1 -2 0
1516 152 2 -0.091672 5.007965382767683 4.083437271880904 22.818490666936164 0 -1 0
943 95 7 -0.358962 10.020332296333972 7.709556065121226 21.06072423319421 1 1 0
1117 112 5 0.404798 7.393786035565187 3.1671469571939266 16.039871421792675 0 0 1
85 9 8 -0.358962 12.929271435977846 2.6762834154591437 17.216106740456627 1 -1 -1
941 95 1 -0.091672 10.76607378038862 5.346549209190621 20.280032287700113 1 1 0
797 80 5 0.404798 15.588636813024738 6.8963855221345485 20.08216536680037 -1 -2 0
796 80 2 -0.091672 14.505541679147312 7.723999081422906 19.598640884031415 -1 -2 0
947 95 5 0.404798 10.272886832134862 3.2492678506082053 19.205369577281896 1 1 0
945 95 8 -0.358962 13.092679136580763 4.476928082322157 21.077330517842007 1 1 0
1517 152 5 0.404798 3.977734753215736 3.264923623404287 23.2445962979109 0 -1 0
800 80 10 -0.358962 12.571882245338792 6.833580734534484 18.115912296068977 -1 -2 0
944 95 4 0.404798 12.074975112466474 4.877169339074135 20.690438561151147 1 1 0
82 9 3 0.404798 14.563818427226076 0.5639732066912467 19.499058755990035 1 -1 -1
798 80 6 0.404798 13.459457269692114 7.213218036664744 18.75909661792924 -1 -2 0
946 95 2 -0.091672 9.976993108500642 4.57221224642536 19.522830891780195 1 1 0
942 95 3 0.404798 10.37878102770607 6.65574685434965 20.73422668003336 1 1 0
794 80 4 0.404798 15.269156192940292 9.7765673030986 20.84890871480712 -1 -2 0
84 9 4 0.404798 13.671250318949532 2.213918226952561 17.97852772374676 1 -1 -1
345 35 8 -0.358962 13.708273982293292 7.647683620268722 23.312429417802385 1 -1 -4
1115 112 8 -0.358962 7.55678882712921 6.749137058705343 15.787996993839668 0 0 1
81 9 1 -0.091672 14.75121655126903 1.8175655178258017 18.802016658377628 1 -1 -1
791 80 1 -0.091672 14.375844746283635 9.008399472964381 19.957937889730474 -1 -2 0
470 47 10 -0.358962 11.186772111081062 0.7298089913494762 22.495684934042284 0 1 0
616 62 2 -0.091672 5.09557344271852 0.15545382181034348 18.15988740052998 -1 1 2
1469 147 9 -0.358962 10.027417679320262 9.532818591830484 16.15169935357221 0 1 0
496 50 2 -0.091672 7.435021315516013 10.059962518841232 19.798988246049653 -1 0 0
468 47 6 0.404798 10.286869773633294 0.830442597388976 23.220701237365837 0 1 0
499 50 9 -0.358962 8.383892122323081 9.884492716676329 22.203294692322345 -1 0 0
497 50 5 0.404798 7.993027639340307 9.880811514223387 21.111135644336144 -1 0 0
620 62 10 -0.358962 5.7430728664549955 0.40752096152385703 15.693199995621097 -1 1 2
1514 152 4 0.404798 4.116967675959049 5.957702074734347 24.021477892846114 0 -1 0
301 31 1 -0.091672 0.15073236095248257 8.55074343265851 26.826686609201154 1 2 0
306 31 2 -0.091672 1.131887223309602 8.497158230806532 27.737764953347696 1 2 0
1170 117 10 -0.358962 1.1519337467908681 4.638718184538422 27.416387345049685 -1 2 0
309 31 9 -0.358962 3.61187255574988 8.974149604135675 27.102766176241207 1 2 0
308 31 6 0.404798 0.7977466721073975 8.254457632525998 29.0533446364858 1 2 0
837 84 5 0.404798 15.471195249915167 5.692625214001203 25.28322062673543 -1 0 0
1168 117 6 0.404798 0.5495424920995506 3.6802100708456473 27.16343088663111 -1 2 0
466 47 2 -0.091672 9.127268293025764 0.8725482325221213 24.017212728046278 0 1 0
1161 117 1 -0.091672 0.45473666486350556 1.393891954424177 27.626198717283415 -1 2 0
1269 127 9 -0.358962 8.46767625882834 0.554460649263235 28.420777784772856 2 2 -1
310 31 10 -0.358962 0.5552600402507233 7.955628084317282 30.14764857119316 1 2 0
689 69 9 -0.358962 4.564177876749302 6.846968108271178 28.681565486266457 1 0 -1
687 69 5 0.404798 4.693917001231537 5.921346517460544 29.36858253633954 1 0 -1
1515 152 8 -0.358962 3.369678299164993 6.446808702079775 24.761703034313598 0 -1 0
1433 144 7 -0.358962 9.918919615290239 6.269031884398087 30.787673116582013 -1 -1 0
1162 117 3 0.404798 1.7068165078043125 1.547478214412629 28.371460604556884 -1 2 0
686 69 2 -0.091672 4.794203445311384 4.663155689779357 30.119037522051467 1 0 -1
681 69 1 -0.091672 5.018943922864161 3.5099799156172806 29.4746173853701 1 0 -1
304 31 4 0.404798 0.4501549702696865 8.743972331107482 25.453741197013603 1 2 0
685 69 8 -0.358962 5.269002066692783 3.316536804182373 26.96028874267395 1 0 -1
684 69 4 0.404798 5.115251298297541 3.415347640025206 28.10580045041081 1 0 -1
682 69 3 0.404798 5.3390640535578875 2.2956167858106404 30.160692699584487 1 0 -1
465 47 8 -0.358962 5.758831425761426 0.7883786627740137 24.778579041665772 0 1 0
1163 117 7 -0.358962 2.764681272788032 1.7158578571206349 28.816623964064874 -1 2 0
464 47 4 0.404798 6.75014264479111 0.5704428212745191 24.21696882647375 0 1 0
1502 151 3 0.404798 7.503594592346774 8.639561094335003 25.426791938453817 1 -2 1
1508 151 6 0.404798 5.737624506639767 10.232533627578178 23.920244855905807 1 -2 1
307 31 5 0.404798 2.532311775341769 8.703876509944903 27.43002901764643 1 2 0
1519 152 9 -0.358962 3.145364798435084 2.5681416616903237 23.65356470262029 0 -1 0
305 31 8 -0.358962 0.8569856240053677 8.89835693930267 24.378448585005575 1 2 0
1503 151 7 -0.358962 7.633294974151338 7.526539603240909 25.126857025207222 1 -2 1
683 69 7 -0.358962 5.554310141990616 1.2786653258565053 30.67555076719778 1 0 -1
1436 144 2 -0.091672 13.440444502952968 6.392945985138379 30.387423909211787 -1 -1 0
111 12 1 -0.091672 12.93075125777786 0.29869384471957083 25.487309340891272 -1 0 1
349 35 9 -0.358962 13.250415001471248 9.077752469847633 27.260234667360326 1 -1 -4
119 12 9 -0.358962 11.450541883886109 1.1123703737754203 28.47721100841167 -1 0 1
343 35 7 -0.358962 9.978215066236888 5.427780444030046 23.769721123355104 1 -1 -4
347 35 5 0.404798 12.447924872503965 8.433140234253312 26.72536587161792 1 -1 -4
346 35 2 -0.091672 11.492497287839386 7.568936896467455 26.06195255020391 1 -1 -4
969 97 9 -0.358962 1.172727213500749 4.598201768773782 30.398132216808747 1 0 1
348 35 6 0.404798 10.37622728857015 7.240664987709012 26.940546611706992 1 -1 -4
839 84 9 -0.358962 14.835702221363617 6.410701668785927 25.935995308142815 -1 0 0
1501 151 1 -0.091672 7.343147513586127 10.047509685578332 25.729240315917806 1 -2 1
159 16 9 -0.358962 14.448605140240165 0.8307999226636955 29.818090771787215 -1 1 -2
344 35 4 0.404798 12.786811000377035 7.395994112700822 23.97057707116366 1 -1 -4
341 35 1 -0.091672 11.728685471313918 7.044523097332396 24.851661139129142 1 -1 -4
350 35 10 -0.358962 9.471370379036308 6.921243089326374 27.592316214289383 1 -1 -4
1431 144 1 -0.091672 12.311928754397234 6.102999397405717 29.72562095433268 -1 -1 0
382 39 3 0.404798 10.197349974137195 2.568338271373571 30.846667253026812 0 -1 0
117 12 5 0.404798 11.744177253765537 0.5467197018501357 27.507975441564838 -1 0 1
342 35 3 0.404798 10.714553978555013 6.163221887762261 24.282098749535876 1 -1 -4
114 12 4 0.404798 13.65135576407497 1.489219903360003 25.706667871751478 -1 0 1
467 47 5 0.404798 9.175743468759261 1.8111497953963447 25.032488540248295 0 1 0
1432 144 3 0.404798 11.014207012683405 6.225089715403734 30.408180564043143 -1 -1 0
469 47 9 -0.358962 9.358209811556138 2.707826465368233 25.745424007147683 0 1 0
1434 144 4 0.404798 12.455673264050542 5.391299663931893 28.494442091705558 -1 -1 0
383 39 7 -0.358962 9.216947138132811 2.731760552017827 30.248584129495637 0 -1 0
1435 144 8 -0.358962 12.545287301257474 4.725984465703745 27.548437348212403 -1 -1 0
363 37 7 -0.358962 10.859341266030974 9.658654858872366 29.29770197616946 -2 0 -1
1437 144 5 0.404798 14.7547719341588 6.070865242207417 29.940519844963294 -1 -1 0
115 12 8 -0.358962 14.091631908308427 2.5504936973478616 25.866213584401734 -1 0 1
157 16 5 0.404798 15.452658658443434 0.9289720014775739 29.245518702428033 -1 1 -2
1164 117 4 0.404798 0.06085190018922465 0.0013057366457155523 27.60210484026395 -1 2 0
461 47 1 -0.091672 7.981807881550855 0.34855921624031433 23.560095726161222 0 1 0
336 34 2 -0.091672 5.392527617845186 15.163694305351235 4.866380716013225 0 -1 1
331 34 1 -0.091672 5.551271763989307 14.580568079132478 6.062359012936245 0 -1 1
332 34 3 0.404798 5.320243936077668 13.137840356697218 6.162205264112706 0 -1 1
334 34 4 0.404798 6.101220075261234 15.307916520401701 7.163028307632781 0 -1 1
337 34 5 0.404798 5.783012331616287 16.518285019064567 4.65422953297645 0 -1 1
338 34 6 0.404798 5.1493084611919215 14.285884453494706 3.7785151680360527 0 -1 1
339 34 9 -0.358962 6.103279239363508 17.617029540052847 4.4650482332020305 0 -1 1
340 34 10 -0.358962 4.9167291666329165 13.510547448031694 2.947636492282964 0 -1 1
1472 148 3 0.404798 4.804056399020882 20.63219377697638 6.7503897388317915 1 0 -2
1473 148 7 -0.358962 5.1219974535841555 19.523332449672832 6.62816027432283 1 0 -2
823 83 7 -0.358962 4.304129805957275 10.507642293805954 2.078411463156124 1 1 0
593 60 7 -0.358962 2.600169182380934 12.19001513732704 3.947236889666047 -1 -1 1
333 34 7 -0.358962 5.244615844678586 11.980439541502406 6.179633096198056 0 -1 1
521 53 1 -0.091672 2.806545453034689 18.608309455497974 2.0259852299902894 1 -1 2
1610 161 10 -0.358962 6.518244469648996 14.828829011506087 0.7115528769508733 -2 1 0
917 92 5 0.404798 2.1294500714394364 16.45804577248859 7.072225753645272 0 1 0
210 21 10 -0.358962 12.091806208382652 10.829245550454852 1.934406934362561 -1 0 1
915 92 8 -0.358962 0.5683618986075213 17.16860767676758 4.368432728015343 0 1 0
522 53 3 0.404798 4.099709859514901 18.20766715559232 1.597285687465338 1 -1 2
526 53 2 -0.091672 1.7398984382881744 18.55241089360879 1.2168255025923038 1 -1 2
592 60 3 0.404798 2.6456292975022455 11.159340278479794 4.4775600514179015 -1 -1 1
527 53 5 0.404798 0.47158365606392016 19.03831017279952 1.636178274297224 1 -1 2
523 53 7 -0.358962 5.148830660432262 17.806906247145346 1.3068786954812694 1 -1 2
1140 114 10 -0.358962 1.1623980840627033 14.642250246272601 2.381149411723904 2 0 1
916 92 2 -0.091672 0.8853978769145723 16.75466476332 7.625342045437254 0 1 0
295 30 8 -0.358962 7.614946779447217 20.819555136220124 6.6832333435738205 -1 0 1
914 92 4 0.404798 0.11176278435324612 17.07352155890618 5.4305418924481055 0 1 0
514 52 4 0.404798 13.430382425436 19.424060450739702 7.242810943375339 0 0 0
525 53 8 -0.358962 2.701082019255594 19.8264923393447 4.281669491364498 1 -1 2
1297 130 5 0.404798 7.691520505401906 10.741689801010393 7.65037695952936 1 0 1
524 53 4 0.404798 2.737246986736486 19.328887467795344 3.2344438801575977 1 -1 2
291 30 1 -0.091672 8.83027711714676 18.584707640529174 7.268590122011337 -1 0 1
55 6 8 -0.358962 7.715285405180239 19.11004196912929 1.4976216569413425 -1 1 1
353 36 7 -0.358962 9.20535040515549 16.41642674586165 1.404666133434968 -1 0 2
299 30 9 -0.358962 10.277625775997407 18.87706264772766 4.161002890260045 -1 0 1
354 36 4 0.404798 9.336054757328604 14.799932144407311 4.479555583923981 -1 0 2
171 18 1 -0.091672 15.19567271342975 17.11208844421205 2.482045955182987 -1 1 1
174 18 4 0.404798 14.090676821653304 17.248309804972454 3.4029516933843498 -1 1 1
922 93 3 0.404798 14.127838142447919 11.58447395008638 7.409683660944742 0 -1 2
359 36 9 -0.358962 12.069985752190986 12.60762311851298 5.044959534608002 -1 0 2
923 93 7 -0.358962 14.073807043617405 10.726896953530591 6.6304261126369655 0 -1 2
352 36 3 0.404798 9.621800515993199 15.766902010189666 2.2708571663381796 -1 0 2
54 6 4 0.404798 8.541560411433037 19.761124726325612 1.0087854342332976 -1 1 1
357 36 5 0.404798 11.722255882590995 13.276745935520657 4.163506994244203 -1 0 2
51 6 1 -0.091672 9.570924322226814 20.529746085160408 0.3925589027434064 -1 1 1
1138 114 6 0.404798 0.5426215631402816 13.689385861069313 2.1497915122094344 2 0 1
56 6 2 -0.091672 10.831346081485526 20.083665990366192 0.30339873317698834 -1 1 1
358 36 6 0.404798 11.887331405961879 14.03711330200658 1.845849172961647 -1 0 2
300 30 10 -0.358962 10.885112094566235 15.781164535626944 7.35527120257482 -1 0 1
297 30 5 0.404798 9.932551434887374 18.366532664114764 5.143796270954882 -1 0 1
824 83 4 0.404798 7.550202997404809 10.810325725965997 3.5515788742741443 1 1 0
356 36 2 -0.091672 11.229033464821875 14.17964981564553 3.088999346417918 -1 0 2
825 83 8 -0.358962 8.150059106526228 11.468717144104504 4.2947432870216 1 1 0
360 36 10 -0.358962 12.449579807843847 13.93117698953874 0.836763344103123 -1 0 2
175 18 8 -0.358962 13.153696598343023 17.361536806656463 4.077375663867608 -1 1 1
296 30 2 -0.091672 9.597733491089855 17.85879223829308 6.4441766685195 -1 0 1
351 36 1 -0.091672 10.09836830601115 14.872000790451015 3.2835408922307874 -1 0 2
59 6 9 -0.358962 11.59466014661002 17.821986757877546 1.3307939622263856 -1 1 1
355 36 8 -0.358962 8.812088138400894 14.754407163536943 5.513473592808743 -1 0 2
57 6 5 0.404798 11.215150351311792 18.833994257996814 0.9095895936123162 -1 1 1
172 18 3 0.404798 15.135800608545171 17.945812802641566 1.391869508605781 -1 1 1
173 18 7 -0.358962 14.908335121053636 18.65024689075572 0.4987670252708235 -1 1 1
298 30 6 0.404798 10.289160623913856 16.698550899654318 6.969468075149016 -1 0 1
515 52 8 -0.358962 12.665362656935406 19.62467045764453 6.394223672391607 0 0 0
294 30 4 0.404798 8.15329423853424 19.806420749875198 6.854524644448239 -1 0 1
1352 136 3 0.404798 15.523680991230004 10.712917795282431 0.183608876313176 -2 -2 1
919 92 9 -0.358962 3.1426339988887126 16.18382066799478 6.578405110127049 0 1 0
1087 109 5 0.404798 6.368452270237779 13.873212841117354 13.425515123389214 -1 0 0
1237 124 5 0.404798 3.953745289840003 19.076917243772925 10.478729751327991 1 -1 1
1236 124 2 -0.091672 2.7313737916741156 19.536575048805943 11.134973518579663 1 -1 1
1238 124 6 0.404798 2.6246904166356657 19.40805845307506 12.56863551865946 1 -1 1
1086 109 2 -0.091672 5.216520675427924 14.214465992231169 12.693330718926392 -1 0 0
1296 130 2 -0.091672 7.660045409692605 11.808730154749842 8.549427006482611 1 0 1
1081 109 1 -0.091672 4.190756244002175 13.352256856762109 12.69497783321158 -1 0 0
1088 109 6 0.404798 5.202512194490259 15.212095726836994 11.684057559473828 -1 0 0
1090 109 10 -0.358962 5.128390497190429 15.857448077467884 10.723002786213316 -1 0 0
1240 124 10 -0.358962 2.674288497530566 19.33761369708034 13.725431747610061 1 -1 1
1084 109 4 0.404798 4.191678746323344 12.228892318467606 13.574200010603276 -1 0 0
1082 109 3 0.404798 3.0835055920812944 13.641426564912937 11.805353798371645 -1 0 0
292 30 3 0.404798 8.533969395202725 18.14091915674363 8.588203480700972 -1 0 1
1231 124 1 -0.091672 1.6406754846131955 19.81588188355891 10.408361622649238 1 -1 1
293 30 7 -0.358962 8.306412841667875 17.772589097981133 9.66437770586978 -1 0 1
733 74 7 -0.358962 2.5603568466935034 16.271211133688517 13.234834629406073 0 1 -1
1083 109 7 -0.358962 2.1269273073991424 13.742541119013278 11.157022292549854 -1 0 0
732 74 3 0.404798 1.5444098047143413 15.928418533703573 13.677491190940586 0 1 -1
1298 130 6 0.404798 6.4095911202622355 12.016889311151665 9.154243628294003 1 0 1
1300 130 10 -0.358962 5.477498809772107 12.316219000443333 9.776502141200101 1 0 1
1234 124 4 0.404798 1.683111617478836 19.847797406329697 8.991801166372904 1 -1 1