LAMMPS data file via write_data, version 29 Sep 2021, timestep = 5000000

1620 atoms
10 atom types
1458 bonds
9 bond types
1620 angles
10 angle types
1944 dihedrals
12 dihedral types

0 31.303 xlo xhi
0 31.303 ylo yhi
0 31.303 zlo zhi

Masses

1 12.01
2 12.01
3 12.01
4 12.01
5 12.01
6 12.01
7 14.01
8 14.01
9 14.01
10 14.01

Bond Coeffs # harmonic

1 400 1.426
2 400 1.426
3 400 1.426
4 400 1.426
5 549 1.34
6 650 1.16
7 650 1.16
8 650 1.16
9 650 1.16

Angle Coeffs # harmonic

1 70 116.8
2 70 116.8
3 70 121.6
4 70 121.6
5 70 121.6
6 70 121.6
7 70 178.9
8 70 178.9
9 70 178.9
10 70 178.9

Dihedral Coeffs # opls

1 0 0 0 0
2 0 0 0 0
3 0 0 0 0
4 0 0 0 0
5 0 0 0 0
6 0 0 0 0
7 0 0 0 0
8 0 0 0 0
9 0 14 0 0
10 0 14 0 0
11 0 14 0 0
12 0 14 0 0

Atoms # full

1457 146 5 0.404798 1.665899965403383 5.973924605780376 4.440325786241602 -1 0 1
1455 146 8 -0.358962 3.363548048511034 8.6879923525439 5.924232274930895 -1 0 1
1459 146 9 -0.358962 0.6067758094934115 6.330314193387252 4.751521032767882 -1 0 1
1454 146 4 0.404798 3.664351366557818 7.8078258591886 5.231105818088692 -1 0 1
1456 146 2 -0.091672 3.03193259609036 5.680976824365425 4.212941768020905 -1 0 1
1452 146 3 0.404798 5.354755295720964 6.321235907367393 4.259331331502306 -1 0 1
1451 146 1 -0.091672 3.9668763860799934 6.596065116560997 4.502930592035053 -1 0 1
1579 158 9 -0.358962 5.238631101280128 7.764811717868484 1.6138007977086912 2 1 0
896 90 2 -0.091672 1.3613285058357005 3.1239506219434254 7.450594441517855 -1 -2 0
480 48 10 -0.358962 4.8347358284680295 5.289431790768737 0.20490431461510003 2 3 -3
1576 158 2 -0.091672 4.95256285494495 10.320788236889733 1.3950529717579863 2 1 0
1458 146 6 0.404798 3.378520596085223 4.365179536959358 3.601416581392773 -1 0 1
106 11 2 -0.091672 8.019029839791463 2.4101863682131612 0.3064524621521938 0 -2 -1
1460 146 10 -0.358962 3.5892102837710698 3.3650586873761252 3.052810967773568 -1 0 1
898 90 6 0.404798 2.053621432536323 4.312636101380769 7.140409999387382 -1 -2 0
1330 133 10 -0.358962 14.915194879167386 0.4656595149269003 5.081725172831642 4 3 -1
1210 121 10 -0.358962 5.427827997726424 2.2771637161299596 5.27561700796661 0 1 0
148 15 6 0.404798 10.634774486003137 6.91055046480103 5.311629268340216 -4 0 2
900 90 10 -0.358962 2.703019894740766 5.26371697551794 7.00138922004234 -1 -2 0
1453 146 7 -0.358962 6.4607911004688825 5.996792523179248 4.12886583693493 -1 0 1
1577 158 5 0.404798 5.169418171028874 8.915046156718157 1.4804955538824416 2 1 0
105 11 8 -0.358962 7.79994951567503 0.48527897807995346 3.1096711284903584 0 -2 -1
1206 121 2 -0.091672 6.816267466430188 0.22065777937756234 6.102429134259933 0 1 0
141 15 1 -0.091672 8.416962071859324 7.54154845053606 5.864216684579787 -4 0 2
897 90 5 0.404798 1.6520972034865788 2.0839001268936777 6.533599329010387 -1 -2 0
1328 133 6 0.404798 13.885868732644422 0.9945452938426167 5.001928452008311 4 3 -1
899 90 9 -0.358962 1.87495510729925 1.3020574576794965 5.706159670674095 -1 -2 0
1202 121 3 0.404798 8.068839211388061 1.8277758500679875 7.411322551823918 0 1 0
1322 133 3 0.404798 13.060856231960162 3.843499088174638 5.175556120874606 4 3 -1
145 15 8 -0.358962 6.475507962668532 7.244134570621071 7.4998298782099875 -4 0 2
1208 121 6 0.404798 6.138883660965492 1.4087864411695035 5.568739411689808 0 1 0
135 14 8 -0.358962 0.3759526939514611 9.2265650050596 2.932462982436243 2 -2 4
1324 133 4 0.404798 10.721417281823193 3.125018717572437 4.976280036977701 4 3 -1
1606 161 2 -0.091672 0.3562508838834589 8.372036853785989 7.130031981694519 -1 3 4
107 11 5 0.404798 7.529744270336755 3.2646461241792855 1.3381646422892488 0 -2 -1
688 69 6 0.404798 14.071458161631117 8.93309640648437 2.691442733913501 0 0 4
147 15 5 0.404798 9.436425083536829 5.8602916620355865 7.211786561210613 -4 0 2
1323 133 7 -0.358962 13.765165434160593 4.752144971001522 5.3301886053467245 4 3 -1
1326 133 2 -0.091672 12.537627227192768 1.549426875348684 4.8743202008163635 4 3 -1
1321 133 1 -0.091672 12.123750058524207 2.8153494422695298 5.02178457686045 4 3 -1
686 69 2 -0.091672 14.236036570169356 10.248588760917615 2.1149816718924797 0 0 4
466 47 2 -0.091672 12.770431548451215 3.8045904814967684 0.9495041656294089 -3 5 -1
109 11 9 -0.358962 7.055235112436722 4.004693066182703 2.094981343155628 0 -2 -1
468 47 6 0.404798 13.983703412678343 3.9224199087290788 1.7508094457407344 -3 5 -1
477 48 5 0.404798 7.423253792677473 7.321813289116509 0.4427114305025144 2 3 -3
683 69 7 -0.358962 11.119035975691993 9.624711615123033 0.8891082881365222 0 0 4
469 47 9 -0.358962 10.431570557358867 4.047857733403966 2.1048920281553736 -3 5 -1
690 69 10 -0.358962 13.951606587534766 7.858567897339788 3.1117094140604697 0 0 4
872 88 3 0.404798 14.186278558383643 8.386072054159262 7.3734897107978545 0 0 -1
150 15 10 -0.358962 11.603036435907118 7.173407291491942 4.729413609327942 -4 0 2
1201 121 1 -0.091672 7.767980652734909 0.5150551091182507 6.998627885528158 0 1 0
143 15 7 -0.358962 8.490326912652156 9.205949014540925 3.891301617885823 -4 0 2
146 15 2 -0.091672 9.445806951900604 6.7105634200350215 6.079952836296027 -4 0 2
142 15 3 0.404798 8.51215839089856 8.421485266829041 4.745549829834645 -4 0 2
467 47 5 0.404798 11.45525671166771 3.927612735978511 1.5727193324329962 -3 5 -1
1325 133 8 -0.358962 9.610045648629008 3.4185688286638145 4.82045506265754 4 3 -1
479 48 9 -0.358962 7.877494870342497 7.986346333583748 1.2779723918152979 2 3 -3
682 69 3 0.404798 12.085582308419596 10.219588165536587 1.1289207486656365 0 0 4
144 15 4 0.404798 7.301152237009208 7.360927007647325 6.693436019440773 -4 0 2
1251 126 1 -0.091672 0.44130986360392294 4.252825782272112 0.46848874567346865 0 -1 -1
1604 161 4 0.404798 0.7040909529390471 10.01910001313733 5.358674169456653 -1 3 4
101 11 1 -0.091672 8.374132279210947 1.17396987544403 0.6823128279392565 0 -2 -1
104 11 4 0.404798 8.06958873564015 0.7299996955486759 2.0083054046598052 0 -2 -1
470 47 10 -0.358962 14.90978073650746 4.05941366505115 2.4358010502448018 -3 5 -1
871 88 1 -0.091672 15.33223174424232 8.602564515766485 6.502369142632708 0 0 -1
1327 133 5 0.404798 11.499604926989274 0.5998820537834703 4.615719085589247 4 3 -1
1254 126 4 0.404798 1.5199779368258213 3.3622541984902115 0.13992521619418702 0 -1 -1
874 88 4 0.404798 15.62197523075136 7.503107864928722 5.6714226098870215 0 0 -1
1601 161 1 -0.091672 0.06704004831486898 8.851930909898261 5.912797913623159 -1 3 4
1240 124 10 -0.358962 15.542119469628927 6.325162523487793 0.7855561278298019 1 -1 -1
1203 121 7 -0.358962 8.278378016375507 2.9214435350932986 7.7362601728020834 0 1 0
1255 126 8 -0.358962 2.4099408051314852 2.6192662365601183 0.10074642038047088 0 -1 -1
1238 124 6 0.404798 14.72256653523848 6.974039981951036 0.28267342658678274 1 -1 -1
203 21 7 -0.358962 1.1065901000071474 4.699130350335123 13.719094388845635 -3 0 -1
795 80 8 -0.358962 4.641818718472674 10.426636405256524 14.135211411372351 -1 3 2
201 21 1 -0.091672 3.0649341221885553 6.02050598880472 14.704327501466135 -3 0 -1
207 21 5 0.404798 4.681392705613467 7.748127695386247 14.675143355107032 -3 0 -1
202 21 3 0.404798 1.949443707685474 5.354027105333997 14.173305828779226 -3 0 -1
206 21 2 -0.091672 3.4867500422065616 7.177635591020156 14.176385833232933 -3 0 -1
208 21 6 0.404798 2.904066923280542 7.8907026840088195 13.06283758249884 -3 0 -1
1153 116 7 -0.358962 8.223873728377134 2.1697665140084723 15.290228147902482 1 3 -1
1156 116 2 -0.091672 5.975478511720129 2.2222817398263373 12.488648162187783 1 3 -1
210 21 10 -0.358962 2.595375684678619 8.424460810795404 12.080283787929455 -3 0 -1
355 36 8 -0.358962 5.560903326158273 5.063153912593284 12.425173936227969 0 -2 -1
357 36 5 0.404798 6.512241576122525 8.511113463863637 11.51071685319222 0 -2 -1
359 36 9 -0.358962 7.22846383570685 8.95557293551327 12.307636830259513 0 -2 -1
1152 116 3 0.404798 7.668012610657579 2.0436396761218254 14.279925996167927 1 3 -1
1499 150 9 -0.358962 7.760440381934815 5.02030351073608 14.496329089523615 -1 1 -5
1160 116 10 -0.358962 4.214759495272464 2.8924735017090124 14.323797623536219 1 3 -1
1158 116 6 0.404798 4.943304073686573 2.5478743768668344 13.489486993887311 1 3 -1
1497 150 5 0.404798 8.680443326499086 4.991668959986692 13.790372546682049 -1 1 -5
1151 116 1 -0.091672 7.218320600991134 1.9192583488469812 12.887547102159216 1 3 -1
1004 101 4 0.404798 14.854326179429888 0.5348571756994006 14.659786457145303 1 -1 2
1157 116 5 0.404798 5.507776738574964 2.2079997885229847 11.105887483913667 1 3 -1
356 36 2 -0.091672 5.541858356069999 8.000776703626421 10.550091512107429 0 -2 -1
1494 150 4 0.404798 8.467698179493741 4.809044309167221 10.806354137567494 -1 1 -5
1159 116 9 -0.358962 5.11982119083516 2.225693234773331 10.012828757237017 1 3 -1
1495 150 8 -0.358962 7.546111806920798 4.6177984360264235 10.128339703490337 -1 1 -5
209 21 9 -0.358962 5.692970823109543 8.20592360006625 15.010900083330775 -3 0 -1
1175 118 8 -0.358962 2.0027218761615933 0.9573893935497286 13.581247074786015 2 1 2
354 36 4 0.404798 5.242732659732884 5.880903181632456 11.666455569691742 0 -2 -1
358 36 6 0.404798 5.100930877802022 8.842047791054291 9.475231847454788 0 -2 -1
894 90 4 0.404798 0.07405134733027197 1.556686300109693 8.824779344691496 -1 -2 0
1500 150 10 -0.358962 12.077621521559559 5.088084666587474 13.98941137854512 -1 1 -5
873 88 7 -0.358962 13.257164750555004 8.263251500466545 8.057055801134473 0 0 -1
1118 112 6 0.404798 12.3427834281688 0.7381417638731974 9.502337773091623 -1 -1 2
829 83 9 -0.358962 15.628216477786095 5.081522943572764 14.983379864661718 0 -1 2
670 67 10 -0.358962 13.562991773766615 7.8758289957452 13.714492516128074 2 -3 1
1113 112 7 -0.358962 14.760575041468561 1.8996754275437513 11.749267470072835 -1 -1 2
999 100 9 -0.358962 2.5370422618177724 0.2762354873327532 9.47869058313598 1 3 -1
668 67 6 0.404798 13.294440117699358 8.837087293769596 14.305646043130789 2 -3 1
1498 150 6 0.404798 11.0176026149085 5.122232887692686 13.51952437897038 -1 1 -5
272 28 3 0.404798 14.267855325614555 3.7188966335750124 8.439309555546282 -1 2 1
275 28 8 -0.358962 15.175978986963303 4.378336275301738 11.722704783704822 -1 2 1
1493 150 7 -0.358962 11.94782026136063 5.223704020957987 10.321420369697611 -1 1 -5
1496 150 2 -0.091672 9.767510227456544 5.095431349455343 12.864155999304337 -1 1 -5
1492 150 3 0.404798 10.914671083955906 5.087633254075563 10.831015776353903 -1 1 -5
1154 116 4 0.404798 8.217610015912165 1.7439545225537092 11.915804046348738 1 3 -1
1112 112 3 0.404798 14.629859470450894 1.064506558404204 10.954908358594732 -1 -1 2
749 75 9 -0.358962 8.195287215654119 8.954460875359668 8.513146750122067 -2 1 2
747 75 5 0.404798 9.234742114773347 9.469353768178589 8.517478915275786 -2 1 2
1155 116 8 -0.358962 8.990637440053382 1.526867272432694 11.078605312592444 1 3 -1
271 28 1 -0.091672 15.499522285515068 4.117560304498546 9.17491546720708 -1 2 1
746 75 2 -0.091672 10.51337434589056 10.095638226172003 8.403257305975577 -2 1 2
1491 150 1 -0.091672 9.699737219140887 5.057472324911701 11.5264094124593 -1 1 -5
745 75 8 -0.358962 10.563868304188844 9.296527732950068 11.779352691521146 -2 1 2
1009 101 9 -0.358962 12.086091189818394 2.2377470007036555 13.596194999804839 1 -1 2
274 28 4 0.404798 15.34054033594099 4.327855167502174 10.575546897878649 -1 2 1
1607 161 5 0.404798 1.3671256016278492 9.097709007427722 7.913789168296364 -1 3 4
1120 112 10 -0.358962 11.515761276756436 1.5481571311941764 9.576563482906796 -1 -1 2
273 28 7 -0.358962 13.345531883308094 3.2732109551242283 7.894990057812955 -1 2 1
351 36 1 -0.091672 4.902289013499257 6.829398750760939 10.67019457066302 0 -2 -1
744 75 4 0.404798 10.908232018158852 9.770539684840625 10.778190219862358 -2 1 2
666 67 2 -0.091672 13.034554971735636 10.128564499660172 15.005689998226783 2 -3 1
1174 118 4 0.404798 1.272502220026394 0.21067590721556856 13.076471676032522 2 1 2
1007 101 5 0.404798 12.533317925564775 1.2143610150717161 13.282715556125027 1 -1 2
892 90 3 0.404798 0.39603192291004785 3.8169025538603263 9.607979464443009 -1 -2 0
893 90 7 -0.358962 0.2230744231037546 4.631946832278981 10.415065906368941 -1 -2 0
149 15 9 -0.358962 9.604463765740537 5.165406508604856 8.12529497485173 -4 0 2
1005 101 8 -0.358962 15.262301285765279 1.2617191933988927 15.46652549128279 1 -1 2
891 90 1 -0.091672 0.7000665677369984 2.8616361166797923 8.5861664330775 -1 -2 0
352 36 3 0.404798 3.7023903051049447 6.536211442731428 9.933140871293464 0 -2 -1
741 75 1 -0.091672 11.301825294771504 10.198549974123646 9.481846323588483 -2 1 2
353 36 7 -0.358962 2.7862807329744346 6.375435915480831 9.239963790493949 0 -2 -1
1609 161 9 -0.358962 2.171865569475772 9.611955876423329 8.57222954900513 -1 3 4
360 36 10 -0.358962 4.730878867704316 9.536865511985528 8.623240155015912 0 -2 -1
1111 112 1 -0.091672 14.55800715364876 0.06928961951275207 9.945429859597047 -1 -1 2
230 23 10 -0.358962 11.695037723798253 2.689417437635636 17.353759306135746 2 1 -3
675 68 8 -0.358962 2.567942604941334 8.066691960688992 16.718902417135386 -5 1 -2
608 61 6 0.404798 5.035944219351614 5.145175856218907 22.973794837847706 5 -2 1
563 57 7 -0.358962 3.055485876607796 1.7416700724683314 18.87048616653132 2 3 -3
677 68 5 0.404798 2.06790483604402 7.90420082832289 20.376840813563916 -5 1 -2
566 57 2 -0.091672 5.787515515535105 0.44852656016289705 17.261950326705204 2 3 -3
671 68 1 -0.091672 1.4936850051003412 6.462861281229279 18.491359143338737 -5 1 -2
676 68 2 -0.091672 1.4798737879863142 6.745278857328824 19.801187201792338 -5 1 -2
680 68 10 -0.358962 0.36353910911837195 5.04031136728672 21.442904749161514 -5 1 -2
678 68 6 0.404798 0.927659721737577 5.790090675092331 20.760849826600225 -5 1 -2
562 57 3 0.404798 3.711050040633348 0.9105092150419912 18.39613687967004 2 3 -3
602 61 3 0.404798 5.936240775551823 3.4729589017968094 20.985755779918517 5 -2 1
606 61 2 -0.091672 5.4184106042483 5.686008190219522 21.702449907254096 5 -2 1
570 57 10 -0.358962 6.025310737506285 2.8786628067658357 16.679055420763827 2 3 -3
568 57 6 0.404798 5.9011674898607644 1.759394341709092 16.957311691878918 2 3 -3
679 68 9 -0.358962 2.4605233607592205 8.906809305672377 20.808381000767472 -5 1 -2
674 68 4 0.404798 2.1590781693408005 7.351545854369573 17.535600593446546 -5 1 -2
672 68 3 0.404798 0.8494643930971114 5.409409441081211 17.821761531419035 -5 1 -2
673 68 7 -0.358962 0.4182528647061604 4.524381614805036 17.208261446544967 -5 1 -2
601 61 1 -0.091672 5.865924279566735 4.852766146109835 20.753219066385153 5 -2 1
1212 122 3 0.404798 9.446126361594871 3.9341580271842607 22.480173116383984 1 0 4
229 23 9 -0.358962 15.121529641833796 4.987513822302208 18.943501075997858 2 1 -3
604 61 4 0.404798 6.359077704603841 5.371278137810912 19.501575854961988 5 -2 1
603 61 7 -0.358962 5.991582719556609 2.3386986123926 21.222379650237194 5 -2 1
1100 110 10 -0.358962 4.946377926229407 8.393248646650143 18.2504192064487 -2 2 -2
1306 131 2 -0.091672 0.09323255492276371 0.2589259403815882 17.700209244468038 -2 1 3
607 61 5 0.404798 5.136865443602106 7.065976819598838 21.520283778010263 5 -2 1
1475 148 8 -0.358962 10.65699798786786 10.294549906927235 21.989643462507633 2 0 -1
903 91 7 -0.358962 7.265456898228352 8.274837392083544 22.523076827824823 -1 0 -3
1096 110 2 -0.091672 7.335913195462766 9.374540833144868 17.978611721330065 -2 2 -2
205 21 8 -0.358962 4.4276290510476475 5.032818923618849 16.703760501329146 -3 0 -1
669 67 9 -0.358962 11.347615707036368 10.127256725490026 16.95149071752716 2 -3 1
852 86 3 0.404798 14.257850803923812 8.858547623228846 17.992396475200653 -1 -1 0
1097 110 5 0.404798 8.165403338682951 8.890190555610241 17.00083108265879 -2 2 -2
1098 110 6 0.404798 5.981098404300474 8.874931339022849 18.04321086409563 -2 2 -2
609 61 9 -0.358962 4.952901960419168 8.193210592002856 21.31754884858825 5 -2 1
222 23 3 0.404798 14.261897070275964 0.4563955340605254 17.55344836799486 2 1 -3
561 57 1 -0.091672 4.7222135164048025 0.029342861901405115 17.958381705888197 2 3 -3
1105 111 8 -0.358962 8.81063488097788 0.5111358321546527 22.210331380636664 3 -1 -1
1213 122 7 -0.358962 9.506090345362374 3.4215396193251766 21.441314762695363 1 0 4
910 91 10 -0.358962 3.7520882103770647 10.19610775632589 23.22464240074078 -1 0 -3
226 23 2 -0.091672 14.157051401708976 2.7990894437293514 17.950416086041514 2 1 -3
260 26 10 -0.358962 13.891527318956422 2.0404569809865434 23.170896433183646 -3 -1 2
227 23 5 0.404798 14.747478886312114 4.002774958642661 18.457728092118746 2 1 -3
853 86 7 -0.358962 15.068129793107586 9.61312567116566 17.646477546327628 -1 -1 0
605 61 8 -0.358962 6.8008809202669 5.804223862703551 18.520266571939207 5 -2 1
667 67 5 0.404798 12.133717317068058 10.070761590513202 16.100342935775117 2 -3 1
858 86 6 0.404798 13.12560751920177 9.253384270199659 20.49437293237082 -1 -1 0
1099 110 9 -0.358962 8.83804719369426 8.382259332361311 16.20386426566532 -2 2 -2
855 86 8 -0.358962 12.64780113915289 6.142961666271836 16.877052745293913 -1 -1 0
221 23 1 -0.091672 14.821591857579516 1.6354829032528666 17.95282091981293 2 1 -3
851 86 1 -0.091672 13.250802536984944 7.982050614814623 18.506418604417295 -1 -1 0
856 86 2 -0.091672 12.757565701619956 8.120965915392272 19.744570426111213 -1 -1 0
859 86 9 -0.358962 10.74138424064073 6.643061431713251 20.519588714396566 -1 -1 0
228 23 6 0.404798 12.833360674488967 2.7180148599212544 17.575125615976976 2 1 -3
860 86 10 -0.358962 13.576811129176312 10.165341207443687 21.05146341678075 -1 -1 0
857 86 5 0.404798 11.668645913468726 7.27570159695133 20.2270956220626 -1 -1 0
1333 134 7 -0.358962 7.772712731245835 0.05839439520563466 19.15805170533954 -3 4 -2
854 86 4 0.404798 12.87721557590201 6.967887261157959 17.659655301421896 -1 -1 0
1091 110 1 -0.091672 7.672047196484467 10.350248492412453 18.833368098117624 -2 2 -2
902 91 3 0.404798 7.11464654262574 9.10238453110256 23.32183958394938 -1 0 -3
204 21 4 0.404798 3.8389726984828614 5.438595331705914 15.790289563185494 -3 0 -1
1257 126 5 0.404798 0.4907146687322351 4.922495915325514 29.41777505941279 0 -1 -2
1259 126 9 -0.358962 0.8243190111436318 4.957083808813969 28.30731939122784 0 -1 -2
1232 124 3 0.404798 14.911793168569046 9.450860396032803 30.38775009952701 1 -1 -2
1242 125 3 0.404798 1.6689441136788827 0.037971850702922645 27.84788093312679 -2 -1 -2
462 47 3 0.404798 14.251322519453746 3.7441107900627566 30.284054479714765 -3 5 -2
478 48 6 0.404798 5.694563700284429 5.887577091413655 31.009388302421833 2 3 -4
102 11 3 0.404798 8.974495346352429 0.21686151879529802 31.049504332986615 0 -2 -2
901 91 1 -0.091672 6.988213756504041 10.099176331476126 24.32363781017222 -1 0 -3
520 52 10 -0.358962 1.9689382877227044 3.396105205728448 25.86284879608594 4 2 0
1109 111 9 -0.358962 9.722527872005092 0.27624752042181183 26.27656054706793 3 -1 -1
518 52 6 0.404798 1.7256985175811337 2.3892545390985918 25.340655221909504 4 2 0
1283 129 7 -0.358962 15.405249193251143 6.427652865515671 24.489408028804693 0 1 3
291 30 1 -0.091672 1.6253647433083152 7.941649217349014 26.838152913047118 2 2 -4
511 52 1 -0.091672 0.08290773727636452 1.16614025468154 24.137254799299452 4 2 0
1243 125 7 -0.358962 0.629378049557174 0.478154102675046 27.58115642315393 -2 -1 -2
292 30 3 0.404798 2.8760594163650754 8.6458919048895 26.93263466551034 2 2 -4
294 30 4 0.404798 0.6047511283817788 8.307158819432884 27.853254256681222 2 2 -4
472 48 3 0.404798 6.2448920915196675 6.465542709105735 28.258877522257894 2 3 -4
471 48 1 -0.091672 7.002559811696025 7.077595456330707 29.341178455512413 2 3 -4
293 30 7 -0.358962 3.8347125550038723 9.261541141478999 27.150717614161568 2 2 -4
1235 124 8 -0.358962 11.569795832176917 9.722883274305838 29.198736762020534 1 -1 -2
298 30 6 0.404798 2.267306992489513 6.8742224094736475 24.683869565775563 2 2 -4
1248 125 6 0.404798 4.135765129680639 1.2581938919143167 27.414515519405924 -2 -1 -2
473 48 7 -0.358962 5.618675246722148 5.9761826495094645 27.41390464397367 2 3 -4
300 30 10 -0.358962 2.9184271136201243 6.744117445597694 23.732704342597028 2 2 -4
296 30 2 -0.091672 1.4272081981930727 7.06364211017523 25.845460864898808 2 2 -4
517 52 5 0.404798 2.246229914620941 0.25129780347075936 24.560717246690498 4 2 0
1250 125 10 -0.358962 4.22954654421122 2.294132965418178 26.901061264875622 -2 -1 -2
1356 136 2 -0.091672 15.398965026602529 8.67693202024705 26.449068141663442 0 1 0
1219 122 9 -0.358962 8.875994396122115 6.202162699999346 26.659714781538625 1 0 4
1218 122 6 0.404798 7.681716718175072 3.4982984034760753 24.838858857171452 1 0 4
1220 122 10 -0.358962 6.893737004337478 2.650840159619745 24.919496741441918 1 0 4
1353 136 7 -0.358962 12.664318522047068 7.066005030007429 28.05071056729762 0 1 0
108 11 6 0.404798 7.957985274149654 2.884720848026525 30.268105064427118 0 -2 -2
297 30 5 0.404798 0.1879662516147699 6.421996244343488 25.731353441095248 2 2 -4
3 1 7 -0.358962 0.768347410117725 9.999110472867757 25.138908889521364 2 6 -2
257 26 5 0.404798 12.77836418048561 0.04736317911424341 25.71930030647206 -3 -1 2
476 48 2 -0.091672 6.795115508683127 6.691493979783103 30.60746928526316 2 3 -4
516 52 2 -0.091672 1.28013411830792 1.2464117185461836 24.733749112210155 4 2 0
110 11 10 -0.358962 7.879442620081575 3.2425727751848563 29.16748112840805 0 -2 -2
904 91 4 0.404798 8.15151913830663 10.267036116434836 25.064736894887798 -1 0 -3
1288 129 6 0.404798 15.440522412165134 3.1049909281798374 25.831596887094594 0 1 3
1290 129 10 -0.358962 14.620276906146557 3.225762367974598 26.642899269354405 0 1 3
610 61 10 -0.358962 4.743971624106292 4.604678978169231 23.95777406639486 5 -2 1
461 47 1 -0.091672 12.928554653107929 3.71591521477753 30.924824320531364 -3 5 -2
905 91 8 -0.358962 9.121935179097209 10.341379071354499 25.69589917598584 -1 0 -3
1358 136 6 0.404798 14.339734022514547 9.23696439018613 25.550755099839208 0 1 0
464 47 4 0.404798 11.856680572554994 3.720815900386703 30.077346971321457 -3 5 -2
1231 124 1 -0.091672 13.687487714788613 8.730793917728354 30.355182702143782 1 -1 -2
474 48 4 0.404798 7.963298547960352 8.039724794688118 28.975568438777184 2 3 -4
475 48 8 -0.358962 8.853127212453758 8.762755265165287 28.799409756141877 2 3 -4
1237 124 5 0.404798 12.407407378677027 6.839366019348663 31.023849585727383 1 -1 -2
1239 124 9 -0.358962 11.421096139678935 6.2288822492319 31.013867287454108 1 -1 -2
1236 124 2 -0.091672 13.60877873862812 7.548740020695342 30.981404282580602 1 -1 -2
1217 122 5 0.404798 8.776033962329432 5.435779113949257 25.794692191765318 1 0 4
463 47 7 -0.358962 15.341073475831418 3.793597843803292 29.88960058966338 -3 5 -2
1351 136 1 -0.091672 15.058138361268444 7.850706653127749 27.447461263942245 0 1 0
1352 136 3 0.404798 13.722970098187677 7.47165983993703 27.80514791953453 0 1 0
1211 122 1 -0.091672 9.48359731590087 4.699759126479145 23.681431804667902 1 0 4
465 47 8 -0.358962 11.015324895992464 3.7163593675485203 29.27878528762282 -3 5 -2
1216 122 2 -0.091672 8.72166835687532 4.494463808361107 24.76444522659502 1 0 4
1234 124 4 0.404798 12.51286855852314 9.295533107190984 29.72179091261309 1 -1 -2
1214 122 4 0.404798 10.459987712253664 5.731676045860417 23.692642284956506 1 0 4
259 26 9 -0.358962 12.301446047000141 0.21600545348847153 26.763191514123623 -3 -1 2
1360 136 10 -0.358962 13.552341915737086 9.718670419874249 24.848207637176056 0 1 0
1215 122 8 -0.358962 11.341288243973903 6.4859197936454285 23.687572075552524 1 0 4
258 26 6 0.404798 13.68119485129789 1.0443534907874876 23.726898311506922 -3 -1 2
1229 123 9 -0.358962 2.7863456483687963 18.68518643856569 3.0551970155117054 4 0 0
966 97 2 -0.091672 7.624957976721433 13.505297072923337 5.436208031281806 -1 0 -1
961 97 1 -0.091672 6.429809915545622 13.017712218064066 5.7960442618314625 -1 0 -1
968 97 6 0.404798 8.34103316927214 14.55959274306897 6.077466310695421 -1 0 -1
1227 123 5 0.404798 3.8483128517197276 18.326217210270848 2.756924091139736 4 0 0
1578 158 6 0.404798 3.583504070245912 10.718955911843565 1.3819177191266672 2 1 0
962 97 3 0.404798 5.765811433785707 13.637323362520892 6.88438101312115 -1 0 -1
970 97 10 -0.358962 8.834263457130866 15.455644656029046 6.624654433525998 -1 0 -1
963 97 7 -0.358962 5.2909389576730845 14.210417834632 7.774133144026551 -1 0 -1
836 84 2 -0.091672 10.563824345274558 20.78433850586705 5.411192592593661 -1 1 0
1226 123 2 -0.091672 5.065445431058605 17.672643288455816 2.4484419747943744 4 0 0
964 97 4 0.404798 5.817113771812554 11.94787603116031 5.0084060025789645 -1 0 -1
1230 123 10 -0.358962 7.057610948693777 19.23117882263483 2.2155840427398847 4 0 0
1228 123 6 0.404798 6.17711003136813 18.49353294936681 2.3774379612314314 4 0 0
99 10 9 -0.358962 5.9839883610132985 18.664367245298994 6.122310105949635 -1 1 0
1224 123 4 0.404798 3.99188641739494 15.54243439687175 2.5130571512694533 4 0 0
1225 123 8 -0.358962 3.1409196137467745 14.762879948842324 2.630319024164725 4 0 0
1221 123 1 -0.091672 5.1728502132789025 16.344732642401414 2.3045061578332278 4 0 0
115 12 8 -0.358962 1.2848355834717204 13.898211821138347 5.04889927946852 -2 -3 3
1222 123 3 0.404798 6.419169548588987 15.65041782995717 2.1480556754620737 4 0 0
430 43 10 -0.358962 0.3510192867512125 14.106088654155187 0.4218292822234214 2 1 -6
97 10 5 0.404798 4.972488400292081 18.229363409676605 6.487329877015139 -1 1 0
1580 158 10 -0.358962 2.4785849622499536 11.07161115240303 1.3622194702168098 2 1 0
1223 123 7 -0.358962 7.408192281878589 15.063504273655138 1.996508626610298 4 0 0
965 97 8 -0.358962 5.3630798749778394 11.131190065935638 4.3210361998889795 -1 0 -1
96 10 2 -0.091672 3.7467948268453424 17.80857327828927 7.005765455522969 -1 1 0
832 84 3 0.404798 8.152139821158553 20.852045198471956 5.5436241330286276 -1 1 0
114 12 4 0.404798 0.5857807965500824 13.738559550251706 5.960729060750768 -2 -3 3
1040 104 10 -0.358962 14.58558881758987 18.378802629075576 5.796015334433896 0 -1 1
1571 158 1 -0.091672 5.919549977390951 11.236652790473128 1.2476487487795858 2 1 0
1573 158 7 -0.358962 5.041963082892888 13.70178225778915 1.0765743066159053 2 1 0
748 75 6 0.404798 10.885680864017925 10.637383348049903 7.1329866336323935 -2 1 2
100 10 10 -0.358962 2.1995405495234315 16.968469075834108 5.091349290443817 -1 1 0
98 10 6 0.404798 2.8621786914785137 17.29078970824468 5.9872399634090945 -1 1 0
681 69 1 -0.091672 13.326213261283488 10.856363394524466 1.341398108073889 0 0 4
1407 141 5 0.404798 12.428113704378429 15.669192996047602 3.658859612916444 1 1 2
838 84 6 0.404798 10.66965737715896 19.790850316028617 4.427468830554274 -1 1 0
1401 141 1 -0.091672 12.600704037758666 15.133753079817001 5.967284150171782 1 1 2
1605 161 8 -0.358962 1.1877054572000771 11.020179022247346 5.0276790019604185 -1 3 4
967 97 5 0.404798 8.224516151996495 12.970893789186658 4.183350172985934 -1 0 -1
983 99 7 -0.358962 13.571146432765952 17.875908517264392 1.1323737988563285 0 -1 0
833 84 7 -0.358962 7.102955667180499 20.657314812539383 5.088769558943483 -1 1 0
840 84 10 -0.358962 10.596596340402575 18.87731166099922 3.71633648911443 -1 1 0
1406 141 2 -0.091672 12.5002588260303 14.725704609846682 4.694882016766666 1 1 2
1410 141 10 -0.358962 12.489130500320323 12.255616815489004 4.1268869227977065 1 1 2
687 69 5 0.404798 15.327830421289514 11.01429038153896 2.527834739910861 0 0 4
1575 158 8 -0.358962 8.37125233267971 10.577868878393803 0.6931957389559779 2 1 0
1402 141 3 0.404798 12.855876343708458 14.162757101985186 7.03915629977587 1 1 2
982 99 3 0.404798 13.790765552559488 18.93896583445694 0.7233792035316156 0 -1 0
1408 141 6 0.404798 12.539424178616207 13.363931834820518 4.465573090202343 1 1 2
981 99 1 -0.091672 14.014072792964033 20.299867815076695 0.35259359329832857 0 -1 0
684 69 4 0.404798 13.449796072372301 12.162263574228586 0.809809086586904 0 0 4
410 41 10 -0.358962 10.38330956079159 16.849848772480712 0.48014343788753233 -2 -1 3
408 41 6 0.404798 9.886928599747298 17.816469992160247 0.07412699202858032 -2 -1 3
969 97 9 -0.358962 8.593630022553572 12.401954583703569 3.2422534031936032 -1 0 -1
1409 141 9 -0.358962 12.490700745412438 16.389870599004293 2.75204836037015 1 1 2
1404 141 4 0.404798 12.421134208220975 16.50823216208709 6.306761598135869 1 1 2
699 70 9 -0.358962 15.459655558068176 15.193565419080688 5.416445306519206 0 -2 3
1574 158 4 0.404798 7.285787936607539 10.837563454213905 1.009306106839199 2 1 0
685 69 8 -0.358962 13.566711682912551 13.243808318413755 0.4070787798628035 0 0 4
1572 158 3 0.404798 5.4738579790875335 12.629291851737005 1.1705483544186923 2 1 0
750 75 10 -0.358962 11.231970084469712 11.127248740716128 6.140154502287259 -2 1 2
1405 141 8 -0.358962 12.355372996356731 17.59977862780316 6.693803897030507 1 1 2
1403 141 7 -0.358962 13.094555440711876 13.268743109753679 7.7387070628601515 1 1 2
648 65 6 0.404798 3.5454549496368446 20.674284821203038 0.020081646479162885 2 4 5
92 10 3 0.404798 2.258051815156312 17.11938917742554 8.765812457266847 -1 1 0
91 10 1 -0.091672 3.4311382215346184 17.723612663708 8.305281745647553 -1 1 0
93 10 7 -0.358962 1.2354325537055022 16.72050006923461 9.14096217945587 -1 1 0
37 4 5 0.404798 0.3861636955772561 11.56920894296277 14.228338488464376 -2 -1 -1
798 80 6 0.404798 8.089512945516784 12.58695116700017 11.621614354153785 -1 3 2
396 40 2 -0.091672 5.418214804398206 16.547077444144 13.231444517166304 2 -1 -1
95 10 8 -0.358962 5.226653704136728 18.309583987454758 10.05684939264471 -1 1 0
796 80 2 -0.091672 6.841737625102199 12.028555690987186 11.878579132059066 -1 3 2
400 40 10 -0.358962 7.028817251316625 16.040464036399786 11.251496775175363 2 -1 -1
13 2 7 -0.358962 8.72770076754026 18.775894122460127 8.327880747800139 -1 -1 0
398 40 6 0.404798 6.316130818574574 16.281564549035085 12.13441726398022 2 -1 -1
119 12 9 -0.358962 2.70179253202592 12.618411711861576 8.754240355090278 -2 -3 3
39 4 9 -0.358962 0.29886087912889714 10.75108752497214 13.410624893193551 -2 -1 -1
1076 108 2 -0.091672 0.8925381493553132 20.256596152881308 10.235295660821818 2 1 -3
1047 105 5 0.404798 8.706169710621284 14.164435000990233 15.290930011320821 -2 0 -5