LAMMPS data file via write_data, version 29 Sep 2021, timestep = 5000000

1620 atoms
10 atom types
1458 bonds
9 bond types
1620 angles
10 angle types
1944 dihedrals
12 dihedral types

0 31.303 xlo xhi
0 31.303 ylo yhi
0 31.303 zlo zhi

Masses

1 12.01
2 12.01
3 12.01
4 12.01
5 12.01
6 12.01
7 14.01
8 14.01
9 14.01
10 14.01

Bond Coeffs # harmonic

1 400 1.426
2 400 1.426
3 400 1.426
4 400 1.426
5 549 1.34
6 650 1.16
7 650 1.16
8 650 1.16
9 650 1.16

Angle Coeffs # harmonic

1 70 116.8
2 70 116.8
3 70 121.6
4 70 121.6
5 70 121.6
6 70 121.6
7 70 178.9
8 70 178.9
9 70 178.9
10 70 178.9

Dihedral Coeffs # opls

1 0 0 0 0
2 0 0 0 0
3 0 0 0 0
4 0 0 0 0
5 0 0 0 0
6 0 0 0 0
7 0 0 0 0
8 0 0 0 0
9 0 14 0 0
10 0 14 0 0
11 0 14 0 0
12 0 14 0 0

Atoms # full

361 37 1 -0.091672 2.4302140722221433 5.053447502888244 4.15114188767971 0 -1 -3
362 37 3 0.404798 3.7635864362779206 4.607703120310493 4.3008798516648135 0 -1 -3
366 37 2 -0.091672 1.4672675930352004 4.791368846167635 5.045372758224823 0 -1 -3
367 37 5 0.404798 0.2586211693044691 5.484047974338092 5.092484692864353 0 -1 -3
364 37 4 0.404798 2.168921428565512 6.009381854733236 3.086490179665352 0 -1 -3
365 37 8 -0.358962 2.0520998109397897 6.77474860039795 2.2226809184236997 0 -1 -3
1241 125 1 -0.091672 10.824157823459581 1.1557702461362716 7.2880324701074874 0 0 1
368 37 6 0.404798 1.7393441361349284 4.136447701903188 6.283823120139109 0 -1 -3
553 56 7 -0.358962 4.921227007955314 1.8306836771584183 2.898736367885097 1 3 2
552 56 3 0.404798 5.417642667675069 1.1373979410702517 3.685200837082276 1 3 2
363 37 7 -0.358962 4.877600324149961 4.284745225700393 4.284410896548561 0 -1 -3
240 24 10 -0.358962 6.3169085552833195 7.5436251571812045 4.24399402638567 -2 0 1
238 24 6 0.404798 6.830789157390106 8.487677222896048 3.8077688458658066 -2 0 1
370 37 10 -0.358962 1.7655386464825193 3.629275513412953 7.326746997040057 0 -1 -3
1155 116 8 -0.358962 3.1627249686442505 9.410691431490477 3.7676493699186864 1 1 -1
237 24 5 0.404798 8.16451001062377 9.370882583752541 2.0969681452970357 -2 0 1
1154 116 4 0.404798 2.2950784094418504 9.956290908156964 3.224408487292762 1 1 -1
1459 146 9 -0.358962 1.6420090714553972 1.0034563361874822 0.690785488431957 1 1 0
236 24 2 -0.091672 7.262540336456943 9.644997243714759 3.1772676256426986 -2 0 1
1152 116 3 0.404798 0.29991479036443996 9.845940626214196 1.9923579758441894 1 1 -1
239 24 9 -0.358962 8.930694814654748 9.155869043047112 1.2529716968960958 -2 0 1
560 56 10 -0.358962 4.745424101231841 2.352719378491937 6.915029924107378 1 3 2
109 11 9 -0.358962 9.85904189914605 1.0052486465065402 0.930580828909756 2 0 0
513 52 7 -0.358962 4.867025114666036 8.814919427280577 1.110001332602506 0 1 0
36 4 2 -0.091672 15.305601692304197 10.409551247563448 1.0890769237263263 1 -1 0
1323 133 7 -0.358962 8.341282065202456 4.800851860485843 1.1916997526738589 1 0 0
1057 106 5 0.404798 1.953862867834476 8.186700945645121 7.218324320812084 2 1 0
515 52 8 -0.358962 5.179122702734728 4.536324929705443 1.0661190864307715 0 1 0
558 56 6 0.404798 5.423795734868689 1.5418528322165328 6.437633497228062 1 3 2
1059 106 9 -0.358962 2.565334779743634 7.523864363755102 6.48870129998276 2 1 0
337 34 5 0.404798 1.8759292628165112 0.24534202365321603 6.122418927419065 1 -1 1
339 34 9 -0.358962 2.4341810596300655 0.9797997292991388 5.4191929319833205 1 -1 1
512 52 3 0.404798 4.970272664429233 7.916124592503622 0.383979450521035 0 1 0
1330 133 10 -0.358962 8.865950707655438 5.454491765948325 4.907238245755927 1 0 0
1583 159 7 -0.358962 12.732750341645893 4.735859159660643 5.389856449464621 1 1 1
556 56 2 -0.091672 6.264485937335757 0.5136796449209756 5.849589113158911 1 3 2
551 56 1 -0.091672 6.116936008561367 0.2335937684756289 4.547521192679895 1 3 2
1582 159 3 0.404798 13.805347386405428 5.0927717497660705 5.650142792305931 1 1 1
1329 133 9 -0.358962 12.728462801266767 7.839375807715169 3.750215105298566 1 0 0
1585 159 8 -0.358962 15.352515622721526 8.153347695433464 6.4051951036103185 1 1 1
1324 133 4 0.404798 11.268736222992267 6.711430538426514 0.9079571443315441 1 0 0
514 52 4 0.404798 5.076284194954596 5.496006643975023 0.4226633950024284 0 1 0
1244 125 4 0.404798 12.014648402067158 0.47104593070865225 7.195141687060392 0 0 1
1321 133 1 -0.091672 10.362238516519634 6.201791738233519 1.9329921234196472 1 0 0
107 11 5 0.404798 10.683991800971985 1.6705386491351941 1.402223502777085 2 0 0
1327 133 5 0.404798 11.77065194575494 7.212748054160773 3.5617051379527362 1 0 0
103 11 7 -0.358962 14.294005174883539 4.82137972440782 2.2041366156019166 2 0 0
1581 159 1 -0.091672 15.073662901961974 5.651594181965822 5.8945425015637305 1 1 1
1242 125 3 0.404798 10.179912458397252 1.2806920354895794 6.027054355406137 0 0 1
110 11 10 -0.358962 12.730911304618688 1.4019351022259863 4.185914143885521 2 0 0
1328 133 6 0.404798 9.64309148931727 5.979396921159841 4.224503475342401 1 0 0
106 11 2 -0.091672 11.792268142847915 2.424891126359467 1.995278336736726 2 0 0
102 11 3 0.404798 13.444581021159284 4.193287440097677 1.7249929176369143 2 0 0
101 11 1 -0.091672 12.309014427598541 3.4534462574738165 1.3092407144501037 2 0 0
1243 125 7 -0.358962 9.576563694247131 1.3408128744415357 5.038137920075873 0 0 1
108 11 6 0.404798 12.364367489113107 1.8435228155100498 3.17782391240474 2 0 0
1197 120 5 0.404798 9.520168885869458 7.863468139107766 7.254376183050145 -1 0 1
1199 120 9 -0.358962 9.34064509715575 8.683923996550584 6.454236577168994 -1 0 1
1326 133 2 -0.091672 10.592465857031076 6.436628727990625 3.232009799822791 1 0 0
1584 159 4 0.404798 15.208037526095747 7.022345540567564 6.191746772752335 1 1 1
1322 133 3 0.404798 9.246481350263554 5.437552255735653 1.5393012492509877 1 0 0
1325 133 8 -0.358962 11.898207881341907 7.09537788999565 0.012440620743298325 1 0 0
335 34 8 -0.358962 3.670547215468028 0.4079520028999549 9.10495574826438 1 -1 1
930 93 10 -0.358962 1.8516501377124932 8.134716476774438 12.653053109289056 -1 -1 0
828 83 6 0.404798 3.0816165161543467 2.5808862539393287 11.158244785362445 1 0 1
923 93 7 -0.358962 5.018754487580537 5.665046158345691 12.463359363561235 -1 -1 0
827 83 5 0.404798 2.7236630616510955 4.790080660453892 9.887857904859734 1 0 1
922 93 3 0.404798 5.129539777753725 6.797253496758902 12.690148145685498 -1 -1 0
826 83 2 -0.091672 3.5888652000551984 3.615255475307572 10.248171075963052 1 0 1
821 83 1 -0.091672 4.86877075446767 3.61959187863101 9.851405452137321 1 0 1
932 94 3 0.404798 1.269902870744816 3.995888052386868 14.947726408612226 1 0 0
921 93 1 -0.091672 5.266139465297728 8.140539389374739 13.018044546709003 -1 -1 0
830 83 10 -0.358962 2.785362196271467 1.7228573004059824 11.880477210612257 1 0 1
1314 132 4 0.404798 12.567001775549523 9.773326356701837 12.363724115522087 0 0 2
44 5 4 0.404798 4.908498233828889 3.1293606426007505 15.507659962255966 -1 1 2
822 83 3 0.404798 5.805393794077107 2.593069560066772 10.33659697543377 1 0 1
823 83 7 -0.358962 6.481464167229927 1.725155720758396 10.704366478940265 1 0 1
824 83 4 0.404798 5.550524257132534 4.6609660789326925 9.127447241755961 1 0 1
1177 118 5 0.404798 0.48320197302432266 0.030618424690696994 14.643410354255998 0 0 2
45 5 8 -0.358962 4.246471167107941 3.013368599638985 14.56221510112082 -1 1 2
928 93 6 0.404798 2.9313362302344905 8.527720063369886 12.812508800041728 -1 -1 0
924 93 4 0.404798 6.639947997420454 8.574870463792031 13.199079568273484 -1 -1 0
933 94 7 -0.358962 1.1102623650617875 4.089919266757805 13.802618104363093 1 0 0
47 5 5 0.404798 7.152091075024822 4.92575202891463 15.561296822685215 -1 1 2
825 83 8 -0.358962 6.01834877292766 5.556373146824939 8.557371463880267 1 0 1
1195 120 8 -0.358962 6.493264657554514 8.300833346817718 9.083809609641987 -1 0 1
829 83 9 -0.358962 2.1150211808444785 5.751464559282855 9.66225636627048 1 0 1
1056 106 2 -0.091672 1.3042473516600712 8.833107199972606 8.25513790003382 2 1 0
926 93 2 -0.091672 4.229141077258542 8.98892486526793 13.039871683932311 -1 -1 0
1179 118 9 -0.358962 1.4844455209736303 0.5686254097848047 14.411764419552384 0 0 2
1058 106 6 0.404798 1.8135782113122796 9.985651528655053 8.79873238772854 2 1 0
1312 132 3 0.404798 14.694579095652871 8.942769309445376 13.164879643895057 0 0 2
1316 132 2 -0.091672 12.804802925928373 7.525017972982583 13.267677708759347 0 0 2
710 71 10 -0.358962 11.731532260352996 9.334741258958717 8.704763758184829 1 -1 0
925 93 8 -0.358962 7.7047949919533725 8.988126637091485 13.401366966421103 -1 -1 0
1490 149 10 -0.358962 12.571465304874701 0.4368459797598833 13.522570718232894 1 2 0
927 93 5 0.404798 4.391142011134956 10.403368909947647 13.09102001452195 -1 -1 0
49 5 9 -0.358962 7.460123620430729 5.54009734346323 14.626793882003609 -1 1 2
1192 120 3 0.404798 8.88593659878543 5.962845730263397 10.210508005729432 -1 0 1
1250 125 10 -0.358962 8.229692472036808 3.3187573152402425 8.154288979691914 0 0 1
1193 120 7 -0.358962 9.121848749731765 5.029130159077287 10.857130527878342 -1 0 1
708 71 6 0.404798 12.01788069358666 10.160265890396422 7.941800053256344 1 -1 0
1111 112 1 -0.091672 15.085513694081266 3.5058948780073065 11.204521188426304 -1 1 1
1481 149 1 -0.091672 11.073801661354537 3.3742620396269416 14.667795403886013 1 2 0
1115 112 8 -0.358962 12.818915683924214 4.784557307502228 11.386080330817034 -1 1 1
1484 149 4 0.404798 10.879800827105024 4.609528700729927 15.43474382535331 1 2 0
1114 112 4 0.404798 13.812282170625677 4.193157852810842 11.290845322894679 -1 1 1
1482 149 3 0.404798 9.964946638641823 3.0366958964444417 13.804063301620854 1 2 0
1311 132 1 -0.091672 13.364513540023273 8.697028592866653 12.937957939131362 0 0 2
1318 132 6 0.404798 13.628871037324595 6.471183711312308 13.822148030029576 0 0 2
800 80 10 -0.358962 9.18683775333459 0.5690278298818214 11.631603477494084 -1 2 0
1486 149 2 -0.091672 12.160377492344004 2.60507326258599 14.820443940666301 1 2 0
1375 138 8 -0.358962 0.06555936336981714 1.8273886242767712 10.11328325861979 2 2 -1
1194 120 4 0.404798 7.449050592274085 7.655454171307391 9.208545193792553 -1 0 1
1112 112 3 0.404798 14.984687680141832 2.1051556960286355 11.368817929709992 -1 1 1
1483 149 7 -0.358962 9.030302140663975 2.9367708424228938 13.124317321608846 1 2 0
1191 120 1 -0.091672 8.675486768114657 6.909809043161535 9.226939653642901 -1 0 1
1113 112 7 -0.358962 14.987053046308871 0.9483003285099447 11.454141131583064 -1 1 1
1319 132 9 -0.358962 10.246357615332663 7.184701024410925 13.048902438980527 0 0 2
1488 149 6 0.404798 12.358251599118594 1.4235780949541796 14.09397218665198 1 2 0
1317 132 5 0.404798 11.392375467564943 7.320986041983912 13.165818915795814 0 0 2
1249 125 9 -0.358962 11.727926981143861 2.3409395541460394 10.453493909561805 0 0 1
1247 125 5 0.404798 11.103568216907647 2.1464411282670337 9.495398666066865 0 0 1
1320 132 10 -0.358962 14.306209346001284 5.66814492123023 14.314023524332889 0 0 2
1094 110 4 0.404798 15.626294485182417 1.9941740869544085 8.365752158427066 -1 1 -1
1051 106 1 -0.091672 0.18141278939590616 8.276801443731369 8.729865662206002 2 1 0
1196 120 2 -0.091672 9.641077315224624 6.9427661312542845 8.298420012272825 -1 0 1
1248 125 6 0.404798 9.155400154295107 2.629395641672197 8.270244791571981 0 0 1
163 17 7 -0.358962 6.498053657552424 0.8329482077389243 14.020490253979073 -1 0 -1
1095 110 8 -0.358962 15.139782662283531 3.01209959959517 8.09605995362062 -1 1 -1
1198 120 6 0.404798 10.831236796774427 6.178820207798354 8.26394383535557 -1 0 1
1246 125 2 -0.091672 10.349902011439942 1.825559698948312 8.347307456796521 0 0 1
1200 120 10 -0.358962 11.754755225670348 5.493141956207936 8.11374720813729 -1 0 1
406 41 2 -0.091672 3.393228790699855 8.21889820254851 17.585688791985977 0 1 0
407 41 5 0.404798 3.9708774617307467 7.070851715573563 17.138364611099494 0 1 0
182 19 3 0.404798 7.5313104590778295 10.00998473994387 16.504030424812555 1 1 -2
937 94 5 0.404798 1.2183144226453304 5.0405895371859595 18.536795211229332 1 0 0
936 94 2 -0.091672 1.0797925383786267 5.060195928684314 17.127764756340593 1 0 0
409 41 9 -0.358962 4.481865198945791 6.056693192718869 16.901776394583507 0 1 0
939 94 9 -0.358962 1.4567212695477716 5.088665581405571 19.671013377037383 1 0 0
1133 114 7 -0.358962 7.7371588307255355 1.7918598916625885 20.809505729554544 1 0 -1
1131 114 1 -0.091672 6.824233849717652 3.1910338188326053 22.845193315413304 1 0 -1
401 41 1 -0.091672 3.4890495615547215 8.54670847186831 18.88143521562177 0 1 0
42 5 3 0.404798 5.327279370479918 2.602462960940765 17.879507258834696 -1 1 2
200 20 10 -0.358962 14.088045855102234 1.360091803672231 18.894992758917375 0 0 -1
43 5 7 -0.358962 5.070376454061431 2.1051458327562584 18.895517365656655 -1 1 2
938 94 6 0.404798 0.7651202229951325 6.308705759652587 16.514329623285523 1 0 0
41 5 1 -0.091672 5.672848314719764 3.343007656744074 16.688829912619187 -1 1 2
931 94 1 -0.091672 1.2395127793832035 3.9349136990465814 16.417955408697317 1 0 0
1509 151 9 -0.358962 3.721793639765206 4.122234770088339 22.337336522381793 0 -1 0
1132 114 3 0.404798 7.380600862246756 2.369163998076312 21.750349157290884 1 0 -1
404 41 4 0.404798 4.1587382499623 7.838282852607339 19.909492232532926 0 1 0
408 41 6 0.404798 2.7225158354813055 9.039975493310811 16.666875212573675 0 1 0
934 94 4 0.404798 1.7341482845033227 2.6849700714710893 16.97408420658399 1 0 0
935 94 8 -0.358962 2.077918909869222 1.650715910628105 17.371249264047197 1 0 0
405 41 8 -0.358962 4.64092535885617 7.337518223574082 20.838109676604827 0 1 0
1138 114 6 0.404798 8.094270164799509 5.223720172328322 22.33741640800521 1 0 -1
1136 114 2 -0.091672 7.069739560557191 4.497091403228198 23.017066898649034 1 0 -1
918 92 6 0.404798 2.2606905792870005 1.3330561699311434 21.449106141223 0 1 -1
402 41 3 0.404798 2.8114948960028485 9.768638924809364 19.322431512336916 0 1 0
135 14 8 -0.358962 1.6247555711131985 9.05943499499483 22.471098005532998 2 0 2
940 94 10 -0.358962 0.46112829229831204 7.281699200043808 15.960729924939159 1 0 0
197 20 5 0.404798 15.24443103760144 1.9868410949055875 22.08698307445039 0 0 -1
1485 149 8 -0.358962 10.761694128238183 5.480931510888175 16.191254200649094 1 2 0
916 92 2 -0.091672 1.9304091501393725 0.6943058157732966 22.749280037390196 0 1 -1
1335 134 8 -0.358962 8.063408202926817 9.361413775265412 20.085340923232003 -1 1 -1
139 14 9 -0.358962 5.634504959899539 9.995794310271158 22.693737723797085 2 0 2
46 5 2 -0.091672 6.694560224667435 4.2090640946474895 16.648197929174867 -1 1 2
134 14 4 0.404798 2.0182083356960194 10.117670303575515 22.737430390225242 2 0 2
1489 149 9 -0.358962 13.950427475036914 3.394609984831362 16.52871815736015 1 2 0
1005 101 8 -0.358962 12.237837802340872 6.170710769188632 22.57056279319361 0 1 -1
48 5 6 0.404798 7.308344281128586 4.6234491706908605 17.85635883933846 -1 1 2
187 19 5 0.404798 11.360528175817059 9.618599573996352 16.683386580194178 1 1 -2
1001 101 1 -0.091672 11.732243200033414 4.997884051161947 20.271229347955646 0 1 -1
860 86 10 -0.358962 14.956336300803013 7.301670944403074 16.778215252382974 0 2 0
198 20 6 0.404798 14.802051387479617 1.2626577809158932 19.80400469613208 0 0 -1
1040 104 10 -0.358962 14.318279202246218 8.311563180589916 21.358476216786265 2 -1 -1
1339 134 9 -0.358962 11.74462954936266 10.286184428040409 20.398773200505527 -1 1 -1
173 18 7 -0.358962 10.68562073994807 0.2877815361781257 20.392351472719977 0 0 -1
1003 101 7 -0.358962 12.581799079619822 6.328084585583606 18.213907474400695 0 1 -1
1230 123 10 -0.358962 12.52989879986704 0.015006185043735914 23.040526792559653 1 0 -1
1007 101 5 0.404798 10.682081151540586 3.157308803416891 21.496290610855432 0 1 -1
1002 101 3 0.404798 12.208546442665565 5.680249533008505 19.10080779967279 0 1 -1
1334 134 4 0.404798 8.526071896428 9.311827329919586 21.147924323861808 -1 1 -1
1331 134 1 -0.091672 9.247930201889627 9.1040740945609 22.429854247816166 -1 1 -1
50 5 10 -0.358962 7.697699723444924 5.11154376375022 18.833991688581932 -1 1 2
1008 101 6 0.404798 10.865933920849788 3.1211255634257493 19.05209823774531 0 1 -1
1140 114 10 -0.358962 8.997350583614523 5.75374614628324 21.838298970828454 1 0 -1
188 19 6 0.404798 9.59748516239257 8.280497166458531 17.81242365711704 1 1 -2
186 19 2 -0.091672 9.949576542506053 9.40521763842408 16.937075197528216 1 1 -2
1010 101 10 -0.358962 10.584512374205456 2.6495177264146967 18.030340954265537 0 1 -1
180 18 10 -0.358962 9.601891987680842 0.1894761814404645 16.507303678742478 0 0 -1
1336 134 2 -0.091672 10.54789032051918 9.413202501763646 22.530568261828027 -1 1 -1
190 19 10 -0.358962 9.434818458526308 7.35692566395812 18.495179262511005 1 1 -2
181 19 1 -0.091672 8.956914011065352 10.087866155100352 16.35037929422779 1 1 -2
1006 101 2 -0.091672 11.139358946922503 3.796398070165604 20.24843282202434 0 1 -1
1487 149 5 0.404798 13.166844950783549 3.037982478120649 15.751276708969414 1 2 0
920 92 10 -0.358962 2.559988129681363 1.7299331938179574 20.401008055841043 0 1 -1
1004 101 4 0.404798 12.02234556440371 5.684521930229347 21.53964889084904 0 1 -1
189 19 9 -0.358962 12.485748577026408 9.885939397619557 16.593896560654304 1 1 -2
183 19 7 -0.358962 6.371455742047925 9.991964300450983 16.5005255244644 1 1 -2
1337 134 5 0.404798 11.249943552407526 9.896032602613348 21.372768742450347 -1 1 -1
199 20 9 -0.358962 14.785321617571752 2.560343954619772 22.984709650064243 0 0 -1
1009 101 9 -0.358962 10.290908528715997 2.7400635600979157 22.50549344326577 0 1 -1
1038 104 6 0.404798 15.113173451736872 8.992424013160347 21.858647786562425 2 -1 -1
858 86 6 0.404798 15.56380914217837 6.433951804898354 17.251121374680412 0 2 0
1504 151 4 0.404798 0.4758784392014433 4.924481039398788 22.942825167057908 0 -1 0
1507 151 5 0.404798 3.2133247053649314 4.974029380823669 22.938589616880392 0 -1 0
410 41 10 -0.358962 2.2313469349040336 9.715387149187615 15.861783785668653 0 1 0
1456 146 2 -0.091672 1.8447038277467795 2.831059125459991 30.1724651411344 1 1 -1
518 52 6 0.404798 4.885244381957633 7.743545034378407 28.758905455496794 0 1 -1
516 52 2 -0.091672 5.129910432142135 6.601898490919969 29.614704568868905 0 1 -1
511 52 1 -0.091672 5.056792460444827 6.710815707607856 30.948267758454154 0 1 -1
519 52 9 -0.358962 5.150866189260858 4.225603776241013 28.646636975063625 0 1 -1
517 52 5 0.404798 5.19187420556081 5.319041294580746 29.0317508857066 0 1 -1
1454 146 4 0.404798 1.8856995664028515 1.0536164040638825 28.510802133731282 1 1 -1
1224 123 4 0.404798 11.314774325734014 1.0753270170217069 27.497945754138726 1 0 -1
1451 146 1 -0.091672 2.007712893409603 2.480311862916057 28.88949811205797 1 1 -1
1457 146 5 0.404798 1.7095576454069845 1.8558483124965797 31.20990725414004 1 1 -1
1333 134 7 -0.358962 8.004571239546296 7.9309347368379495 24.40407797381187 -1 1 -1
1452 146 3 0.404798 2.026722162612548 3.402726601622 27.855750156183294 1 1 -1
1508 151 6 0.404798 3.2823504027012276 7.012421183728581 24.178195667025022 0 -1 0
1069 107 9 -0.358962 4.783138367353029 0.9203303790965678 27.767064655658857 0 2 0
1510 151 10 -0.358962 3.9396742683027557 7.932908994081598 24.435542760662585 0 -1 0
520 52 10 -0.358962 4.660277165008478 8.645551681492831 28.065094431693197 0 1 -1
1139 114 9 -0.358962 5.9616197405067775 5.661700491735801 25.075022512150085 1 0 -1
873 88 7 -0.358962 8.485790121345673 6.054032220981348 29.623079971299415 0 0 0
1338 134 6 0.404798 11.381677162829998 9.075243540217071 23.66657615658709 -1 1 -1
1389 139 9 -0.358962 0.358491230998772 7.497298378515113 27.95595948586917 0 0 -1
1506 151 2 -0.091672 2.5433133703175983 5.938060556878819 23.616181477810375 0 -1 0
1225 123 8 -0.358962 11.04936933479347 1.4327531720517495 28.569116481968766 1 0 -1
880 88 10 -0.358962 7.431926341935287 1.7101132180141563 30.746499088907008 0 0 0
1453 146 7 -0.358962 1.8858340685560098 4.211693992238706 27.036407561804936 1 1 -1
878 88 6 0.404798 7.747511626157623 2.2173684362748736 29.7521661143862 0 0 0
917 92 5 0.404798 1.7582153976327881 1.5894346621873081 23.8651003849979 0 1 -1
919 92 9 -0.358962 1.5080771295229252 2.2765380485874473 24.76561122684988 0 1 -1
1501 151 1 -0.091672 1.2038981187251674 5.9383112702926315 23.655763263695256 0 -1 0
872 88 3 0.404798 8.509332335510106 5.07806952458658 28.996547811056157 0 0 0
876 88 2 -0.091672 8.112561562591976 2.696114827494662 28.42192443005331 0 0 0
871 88 1 -0.091672 8.520756556822535 3.9348839339199873 28.114633166552032 0 0 0
1135 114 8 -0.358962 5.054168384891698 2.029594135028135 24.319996804418043 1 0 -1
1458 146 6 0.404798 1.8630206776391052 4.161236371290696 30.669009335607033 1 1 -1
1502 151 3 0.404798 0.47262802993733327 6.971806211603917 24.377354129051884 0 -1 0
1226 123 2 -0.091672 12.161447767252787 1.2577880008323905 25.318080623658282 1 0 -1
1340 134 10 -0.358962 12.024302113394333 8.812074248126565 24.595755950456212 -1 1 -1
1227 123 5 0.404798 12.487433796708158 2.5991874608983263 25.471864219755464 1 0 -1
720 72 10 -0.358962 6.500146286859657 10.37406186179847 29.823747521614305 0 -1 2
1221 123 1 -0.091672 11.526212461734918 0.5182305432420719 26.237390601307006 1 0 -1
498 50 6 0.404798 13.611267208179815 7.26972778938879 27.858917031255352 -2 1 -1
1134 114 4 0.404798 5.889258585634428 2.55968256620655 23.714001255420754 1 0 -1
497 50 5 0.404798 14.296914431251219 5.236380588383583 28.970778947776974 -2 1 -1
713 72 7 -0.358962 8.982270942196168 8.605953742785115 27.392822381722368 0 -1 2
712 72 3 0.404798 8.49400737698141 9.598891985511464 27.044580686624982 0 -1 2
493 50 7 -0.358962 14.514403926647551 6.927558831731848 24.521319399478784 -2 1 -1
492 50 3 0.404798 14.75514928583407 6.363329973050841 25.505843375951436 -2 1 -1
496 50 2 -0.091672 14.237817835720309 6.00243781995605 27.80494256327168 -2 1 -1
1170 117 10 -0.358962 13.972307390367995 0.5634423415929901 30.78939090641286 -1 0 0
1228 123 6 0.404798 12.48203344044028 0.5867389831596451 24.04870852304631 1 0 -1
1137 114 5 0.404798 6.474400190557193 5.209620300513588 24.137856738630294 1 0 -1
1168 117 6 0.404798 14.846924590014536 0.7826669268079326 30.059606463183314 -1 0 0
1443 145 7 -0.358962 10.85378029128328 9.648688023771617 29.731905036637727 1 1 0
1460 146 10 -0.358962 2.0427669077112833 5.1775501585359684 31.198535109140757 1 1 -1
491 50 1 -0.091672 14.926894700736138 5.604296598251155 26.726862493467834 -2 1 -1
499 50 9 -0.358962 14.368933646368825 4.605906684146523 29.94181750443126 -2 1 -1
874 88 4 0.404798 9.030567089532521 4.281698654636099 26.754929084659153 0 0 0
875 88 8 -0.358962 9.39550822088669 4.5935601870516205 25.698917565670136 0 0 0
879 88 9 -0.358962 8.05013708901193 0.8893605971845808 26.57024052933246 0 0 0
500 50 10 -0.358962 13.187027096941682 8.347576689623272 27.796771433607706 -2 1 -1
1229 123 9 -0.358962 12.699918575031239 3.7367005803174598 25.55257419611376 1 0 -1
877 88 5 0.404798 8.028275680987543 1.7186886511126527 27.38100377320255 0 0 0
105 11 8 -0.358962 11.283035494866809 4.022623981650852 30.2414758217379 2 0 -1
104 11 4 0.404798 11.814336084583378 3.815779824201571 31.251691230967083 2 0 -1
1332 134 3 0.404798 8.546310882610864 8.491545772355787 23.545105670213463 -1 1 -1
271 28 1 -0.091672 4.540511216885391 17.618739776643746 2.235470553375405 2 0 1
276 28 2 -0.091672 3.382856336736423 17.661704075040944 2.908960874066222 2 0 1
279 28 9 -0.358962 2.681976420102617 19.89698832183825 4.06226984649588 2 0 1
272 28 3 0.404798 4.981833602644978 16.454818111046265 1.498612005772646 2 0 1
277 28 5 0.404798 2.9149873016058905 18.895457057964297 3.5253890234766447 2 0 1
278 28 6 0.404798 2.514586875682931 16.515122736848966 2.9240317144207633 2 0 1
31 4 1 -0.091672 15.284013054921292 11.37094804390593 2.0222704341773388 1 -1 0
233 24 7 -0.358962 5.61302462469537 11.564589915107113 5.61281507762787 -2 0 1
232 24 3 0.404798 6.18348821471918 11.286944779432122 4.641689733409804 -2 0 1
280 28 10 -0.358962 1.84129674656335 15.573339999188182 2.8510548788358054 2 0 1
989 99 9 -0.358962 8.015001726235644 19.934152675072248 4.669770763127738 0 -1 0
273 28 7 -0.358962 5.452854795446623 15.495737272890567 1.0470558627069546 2 0 1
1159 116 9 -0.358962 3.5878328239098343 13.464517735967137 2.708979317948833 1 1 -1
814 82 4 0.404798 1.2373727081150794 16.2229023794307 6.100181426169965 0 0 1
1158 116 6 0.404798 0.832739889901533 12.626757692144059 1.0499521552637565 1 1 -1
812 82 3 0.404798 1.4576384535514348 13.821116048537588 5.927562181094278 0 0 1
702 71 3 0.404798 14.647228045190053 11.145316902751704 7.639958074493508 1 -1 0
231 24 1 -0.091672 7.0133567975368685 10.915247261589009 3.523638022416265 -2 0 1
1157 116 5 0.404798 2.729260660697984 12.771132043080941 2.351669759211803 1 1 -1
234 24 4 0.404798 7.56459687724145 12.005782196971662 2.70043617231803 -2 0 1
813 82 7 -0.358962 1.8206237677731194 12.78409789994807 5.5554936161416535 0 0 1
274 28 4 0.404798 5.291447314001378 18.868340520731508 2.2152774143790896 2 0 1
1156 116 2 -0.091672 1.5667539182370316 11.94423653220217 2.015489949076354 1 1 -1
275 28 8 -0.358962 5.829910491569969 19.884318502937514 2.3683987556774646 2 0 1
815 82 8 -0.358962 1.435191024615056 17.320593594362634 5.781525038305144 0 0 1
1160 116 10 -0.358962 0.17071179727016958 13.186709848278648 0.2793859018840801 1 1 -1
1449 145 9 -0.358962 10.268644605192 15.236504035517257 0.11620933335792363 1 1 1
985 99 8 -0.358962 6.955357193647326 15.851945767620107 4.285502420605439 0 -1 0
987 99 5 0.404798 8.701498953141837 19.115932039250485 4.217182053979418 0 -1 0
1045 105 8 -0.358962 9.31135790916046 18.068677993311237 7.644608045080985 1 0 -1
1283 129 7 -0.358962 12.754352760363671 16.48171641656569 5.186255132869622 1 1 -1
655 66 8 -0.358962 3.273364746055565 20.587634435274712 0.15659249803818023 -1 -1 2
704 71 4 0.404798 13.808064312036604 12.732560912047486 5.972141603108961 1 -1 0
235 24 8 -0.358962 7.9998176158226055 12.90502085711182 2.110900138090714 -2 0 1
1281 129 1 -0.091672 14.61914164041056 16.61722156722013 3.4253482255413723 1 1 -1
701 71 1 -0.091672 13.507739839604612 11.745739571391365 7.006636070667522 1 -1 0
1450 145 10 -0.358962 11.27656545216857 11.241177627540694 2.066511117012864 1 1 1
983 99 7 -0.358962 10.9471884390391 14.8797921462177 3.2240400404834078 0 -1 0
35 4 8 -0.358962 13.74943851386506 13.333487639179221 1.4737969040666454 1 -1 0
705 71 8 -0.358962 14.066933685286381 13.360958774470502 5.032086940773081 1 -1 0
1151 116 1 -0.091672 1.3642322978898793 10.689710613545019 2.4406366260266177 1 1 -1
539 54 9 -0.358962 7.869294151299808 17.98190090157381 0.5499248235248059 2 2 0
72 8 3 0.404798 14.69421794730711 20.560507898047454 5.976707478613672 2 1 0
990 99 10 -0.358962 11.92833263756674 19.218375716210286 3.086986735974741 0 -1 0
1448 145 6 0.404798 11.019153534117237 11.927876020594166 1.1677428464868977 1 1 1
115 12 8 -0.358962 0.9813953240955642 18.27826368124225 0.1391305229247354 0 -1 1
981 99 1 -0.091672 9.337593838820803 16.81235653784235 3.7399478985402377 0 -1 0
706 71 2 -0.091672 12.26781671528759 11.242630440528236 7.077852909611826 1 -1 0
1285 129 8 -0.358962 14.012021025957782 16.473906020573317 0.8980421688527387 1 1 -1
1440 144 10 -0.358962 0.6290002962738024 20.34961472961397 2.0187715306783955 -1 0 0
984 99 4 0.404798 8.018924424777808 16.253359778794525 4.05465284281971 0 -1 0
709 71 9 -0.358962 10.18738486175212 12.234728605709794 5.8722668293779945 1 -1 0
988 99 6 0.404798 10.911369705704246 18.710674424190078 3.318559110607746 0 -1 0
986 99 2 -0.091672 9.677920463037312 18.107895138028663 3.7031041109557385 0 -1 0
34 4 4 0.404798 14.50187139781562 12.506921600913339 1.7840118653963846 1 -1 0
1282 129 3 0.404798 13.59124032404096 16.550240333232214 4.385927943378606 1 1 -1
707 71 5 0.404798 11.122924802808383 11.816331498936743 6.415690102836492 1 -1 0
982 99 3 0.404798 10.23770572278555 15.76888173504373 3.4515350383801793 0 -1 0
1284 129 4 0.404798 14.211707545751144 16.5463576563428 2.0384263303764762 1 1 -1
73 8 7 -0.358962 15.034040811645951 19.48773978843676 5.695124472800876 2 1 0
811 82 1 -0.091672 0.9242350637782696 14.934616257842356 6.537353707071683 0 0 1
145 15 8 -0.358962 4.766203512667838 16.951045796687925 6.625619582028659 0 0 1
1447 145 5 0.404798 10.377181937032704 14.082976827108956 0.0596885166551178 1 1 1
144 15 4 0.404798 5.452582246335795 16.27573281930166 7.272486350338752 0 0 1
159 16 9 -0.358962 4.781541817432911 15.480376144866815 12.054676132939916 0 1 0
151 16 1 -0.091672 1.4535767424956298 15.58647465788375 13.052382824592746 0 1 0
154 16 4 0.404798 1.2029928785831694 16.36777242904983 11.882619947656378 0 1 0
157 16 5 0.404798 3.7911279742107404 15.247190572164454 12.611726302987098 0 1 0
156 16 2 -0.091672 2.5829968998536543 14.924232998794576 13.337770409927263 0 1 0
152 16 3 0.404798 0.3740061802913411 15.286666223219012 13.849709892715227 0 1 0
1047 105 5 0.404798 7.156996788819997 18.557737693020403 10.564560666128132 1 0 -1
1060 106 10 -0.358962 2.169571754166252 10.905562999089152 9.409167843964388 2 1 0
326 33 2 -0.091672 14.756471511640706 18.600171618913297 9.61267000461747 0 -1 0
929 93 9 -0.358962 4.50086545248247 11.553824712842697 13.19108095690861 -1 -1 0
158 16 6 0.404798 2.633276350877354 14.08297235894072 14.47107088469502 0 1 0
722 73 3 0.404798 4.181255595854894 19.683470947743608 8.693285110608727 1 0 0
1049 105 9 -0.358962 6.804842087284127 17.47735652948572 10.79772061192268 1 0 -1
142 15 3 0.404798 7.5303552232786695 15.094844074459452 7.953980768889719 0 0 1
723 73 7 -0.358962 4.400172731073745 18.77976197457276 9.386816200092671 1 0 0
155 16 8 -0.358962 0.9867546377574927 17.074398782370352 10.988461009555452 0 1 0
148 15 6 0.404798 5.939792922739167 13.380781063619995 9.412641323006193 0 0 1
415 42 8 -0.358962 1.3112668440707989 11.701311090572942 13.01335120969631 2 0 1
150 15 10 -0.358962 6.322615967057376 12.44843310899369 9.986900672750505 0 0 1
141 15 1 -0.091672 6.122155532923239 15.278171562579649 8.080259066050946 0 0 1
147 15 5 0.404798 3.886354945968308 14.618908473206671 8.867877023883853 0 0 1