LAMMPS data file via write_data, version 29 Sep 2021, timestep = 5000000

1620 atoms
10 atom types
1458 bonds
9 bond types
1620 angles
10 angle types
1944 dihedrals
12 dihedral types

0 31.303 xlo xhi
0 31.303 ylo yhi
0 31.303 zlo zhi

Masses

1 12.01
2 12.01
3 12.01
4 12.01
5 12.01
6 12.01
7 14.01
8 14.01
9 14.01
10 14.01

Bond Coeffs # harmonic

1 400 1.426
2 400 1.426
3 400 1.426
4 400 1.426
5 549 1.34
6 650 1.16
7 650 1.16
8 650 1.16
9 650 1.16

Angle Coeffs # harmonic

1 70 116.8
2 70 116.8
3 70 121.6
4 70 121.6
5 70 121.6
6 70 121.6
7 70 178.9
8 70 178.9
9 70 178.9
10 70 178.9

Dihedral Coeffs # opls

1 0 0 0 0
2 0 0 0 0
3 0 0 0 0
4 0 0 0 0
5 0 0 0 0
6 0 0 0 0
7 0 0 0 0
8 0 0 0 0
9 0 14 0 0
10 0 14 0 0
11 0 14 0 0
12 0 14 0 0

Atoms # full

837 84 5 0.404798 2.0950080144226124 5.202091234120761 6.2706626317931216 0 -1 -2
1417 142 5 0.404798 13.48634391591292 0.05549308132464503 3.804718351518729 2 3 4
313 32 7 -0.358962 0.35336837318547587 6.079826080421226 0.37540111427086104 1 2 0
840 84 10 -0.358962 5.24803325431646 6.394343783221188 5.778844068504733 0 -1 -2
836 84 2 -0.091672 3.438788173956718 4.657384097113696 6.434657608094818 0 -1 -2
834 84 4 0.404798 2.4650705824678614 2.600751475700623 7.19078627347597 0 -1 -2
838 84 6 0.404798 4.475289578850076 5.574216469640417 6.0542680988856965 0 -1 -2
831 84 1 -0.091672 3.6194677673322704 3.3819039481325395 6.803582063708984 0 -1 -2
832 84 3 0.404798 4.867687626038334 2.6642421389283837 6.894577394704304 0 -1 -2
839 84 9 -0.358962 1.0175456480163616 5.592310068988344 6.090651215819285 0 -1 -2
1077 108 5 0.404798 2.4564102761404927 8.588934440448016 6.562153697383379 3 1 0
247 25 5 0.404798 0.7910369052468429 8.296856986311232 3.4941691639308834 2 5 2
1079 108 9 -0.358962 2.7751729777318097 9.044510110198168 5.544096161631683 3 1 0
246 25 2 -0.091672 1.633240133322124 8.49210909461293 2.3630186617531432 2 5 2
250 25 10 -0.358962 4.118118593562264 7.980174305282235 2.6626635237581096 2 5 2
41 5 1 -0.091672 6.086068768105141 2.6699550345973564 2.2091070180042793 -2 0 1
248 25 6 0.404798 2.98363980944819 8.195974593307557 2.553173254169426 2 5 2
833 84 7 -0.358962 5.885939451499026 2.1149000246594833 6.978162410864082 0 -1 -2
241 25 1 -0.091672 1.174056184024263 9.014311084568412 1.21756888892919 2 5 2
703 71 7 -0.358962 14.615960863703563 6.54310015834239 4.040247906239547 0 -1 0
710 71 10 -0.358962 13.099561804973106 8.981607586341704 7.041336950408838 0 -1 0
49 5 9 -0.358962 2.6885792055180944 2.0537601719568728 2.6048141476652433 -2 0 1
45 5 8 -0.358962 5.9846383337180304 1.235841319395128 4.321580722952678 -2 0 1
44 5 4 0.404798 6.103522419355019 1.9858787784981882 3.444705371294511 -2 0 1
47 5 5 0.404798 3.6813881781427913 2.4755256628099196 2.1781477573317223 -2 0 1
1207 121 5 0.404798 7.014900338276364 9.544022926783763 1.4573997207493716 1 1 2
1208 121 6 0.404798 6.577131556729049 8.940226420211687 3.749347020168602 1 1 2
1201 121 1 -0.091672 7.755818516089606 7.435648210841817 2.2776942028516163 1 1 2
1206 121 2 -0.091672 7.206812273719216 8.634445513161578 2.516602471832532 1 1 2
1202 121 3 0.404798 7.824728229719882 6.487293787142048 3.3037011652486545 1 1 2
249 25 9 -0.358962 0.12105614797784643 8.19968405273825 4.436126278387103 2 5 2
46 5 2 -0.091672 4.916020513532577 2.962403639316502 1.6251028266682632 -2 0 1
302 31 3 0.404798 11.130016518745652 4.097742986607333 1.1083741075639804 -1 2 1
705 71 8 -0.358962 12.253144034346949 8.558165774138638 1.1749632663286118 0 -1 0
708 71 6 0.404798 12.77026783294155 9.166394608233647 5.944514615778073 0 -1 0
706 71 2 -0.091672 12.407960015645331 9.208465446155222 4.555022326784378 0 -1 0
460 46 10 -0.358962 14.901604459985897 7.228077676607132 0.8856496501766817 -2 -2 -3
260 26 10 -0.358962 9.099198281984023 8.010115522384242 7.647935891083109 2 3 -2
1414 142 4 0.404798 14.256202609667678 2.741652250392801 3.596566160989911 2 3 4
1484 149 4 0.404798 14.805848436533248 3.8796786941461243 0.26344626503636526 2 6 -1
307 31 5 0.404798 10.996102935145037 0.3442501416416873 0.8945116593673355 -1 2 1
261 27 1 -0.091672 11.960238613904657 3.543795902637515 6.734117755688696 0 2 -1
264 27 4 0.404798 13.231095452964464 4.099591421773219 6.552836403579292 0 2 -1
1411 142 1 -0.091672 15.15251939399946 1.798409905581482 4.140253631205816 2 3 4
303 31 7 -0.358962 11.094787797625898 5.174126864766817 1.5393690942044038 -1 2 1
704 71 4 0.404798 12.440123345721371 8.465568675983805 2.3160436812749423 0 -1 0
1205 121 8 -0.358962 8.979833384278496 6.817412910009053 0.06913142893529711 1 1 2
701 71 1 -0.091672 12.807698475747593 8.322784139420367 3.6323209760168913 0 -1 0
702 71 3 0.404798 13.791445472580191 7.326924571862992 3.8135462167084753 0 -1 0
1485 149 8 -0.358962 13.845484443104967 4.507648410765061 0.4336080457453956 2 6 -1
707 71 5 0.404798 11.517873693166871 10.271410715919302 4.167546118281356 0 -1 0
1415 142 8 -0.358962 13.495546635153213 3.5186196240370124 3.1924322868937405 2 3 4
1204 121 4 0.404798 8.433757529593105 7.112946032101518 1.0489586187380602 1 1 2
1203 121 7 -0.358962 7.926335474380376 5.7537591071340835 4.1965633214805065 1 1 2
301 31 1 -0.091672 11.082771358175718 2.7915006217931566 0.5478333346868189 -1 2 1
266 27 2 -0.091672 10.867381954446042 4.119643652328529 6.214826242321744 0 2 -1
267 27 5 0.404798 11.051776317609765 5.2795447370979325 5.4138702984535545 0 2 -1
262 27 3 0.404798 11.939566452472814 2.2718897784470102 7.491874877534427 0 2 -1
268 27 6 0.404798 9.576276933221248 3.6491129398595175 6.3710870162375945 0 2 -1
270 27 10 -0.358962 8.507173891529481 3.2238334920496694 6.518586359544846 0 2 -1
269 27 9 -0.358962 11.171955847547606 6.286814227505356 4.851229157522494 0 2 -1
308 31 6 0.404798 10.89132694597416 1.9618009922753097 2.7099466791806934 -1 2 1
310 31 10 -0.358962 10.847465524673039 2.1734376035244765 3.8496335298980044 -1 2 1
306 31 2 -0.091672 10.976698697446821 1.7194173789142388 1.344693490852302 -1 2 1
265 27 8 -0.358962 14.319884575953266 4.494851736004687 6.490326234191522 0 2 -1
42 5 3 0.404798 7.327268186302941 2.9885838812953955 1.6904856385623628 -2 0 1
1210 121 10 -0.358962 6.1451258814737 9.27894958063718 4.77122651710805 1 1 2
242 25 3 0.404798 2.184200722275388 9.239315473307872 0.23608823277748076 2 5 2
835 84 8 -0.358962 1.5559659686121041 1.9599235614633235 7.520131657871465 0 -1 -2
1353 136 7 -0.358962 0.31438474257672155 1.6389871715304818 4.759379725633804 1 -2 0
1209 121 9 -0.358962 6.736396209201646 10.313905733285106 0.6356236529434933 1 1 2
1416 142 2 -0.091672 14.713665136500572 0.5436164336997306 4.309073900409769 2 3 4
43 5 7 -0.358962 8.300454388758054 3.4149836156138345 1.224983902560879 -2 0 1
48 5 6 0.404798 4.840366902909888 3.7443575695014406 0.4522144786574522 -2 0 1
1076 108 2 -0.091672 2.1586516446405986 7.994108244234038 7.81938178720499 3 1 0
621 63 1 -0.091672 0.35844204244226774 5.265904488860634 14.44161812868862 0 3 -4
1073 108 7 -0.358962 0.4062987203475651 6.91596541895912 10.602125336130824 3 1 0
589 59 9 -0.358962 7.752546098500156 0.7184825274239101 14.11993445891064 -1 4 0
1430 143 10 -0.358962 3.3902658747917336 0.13320637222327084 13.702117151190054 2 1 1
1012 102 3 0.404798 4.324170706917198 6.4764633278230095 11.705144833297279 1 6 1
1459 146 9 -0.358962 0.7105306761898843 2.4251079334972605 11.118187113021703 -3 -1 0
628 63 6 0.404798 2.3869058331881186 6.361833070337553 15.078640736010241 0 3 -4
627 63 5 0.404798 2.3797517698931587 4.036688838887305 14.263340131106798 0 3 -4
626 63 2 -0.091672 1.6945832669463827 5.313669575845972 14.531312739426966 0 3 -4
630 63 10 -0.358962 3.0298116562481665 7.195388335681735 15.565937070986324 0 3 -4
1456 146 2 -0.091672 2.2682499489107695 0.38170462785223713 10.847896690198047 -3 -1 0
629 63 9 -0.358962 3.088335020215117 3.1607419102247376 13.987248203746931 0 3 -4
258 26 6 0.404798 9.172584639107212 7.075525606411057 8.331131414468757 2 3 -2
1013 102 7 -0.358962 4.246329067009848 5.377969703940675 11.340655573029048 1 6 1
259 26 9 -0.358962 7.102453029786081 4.601513198500274 9.501998555320789 2 3 -2
1015 102 8 -0.358962 1.756301468202713 8.430953375916479 12.980192651202529 1 6 1
1014 102 4 0.404798 2.8104806067840507 8.183393116946572 12.564235612565628 1 6 1
1011 102 1 -0.091672 4.164815637809405 7.83485963200553 12.119746198035921 1 6 1
825 83 8 -0.358962 7.568659110873035 3.812800270804317 12.949540912021499 3 3 0
1072 108 3 0.404798 0.6838597416187496 7.475964367393362 9.624904248541501 3 1 0
1080 108 10 -0.358962 4.048145075854948 6.596797770369653 8.830393907532024 3 1 0
1457 146 5 0.404798 1.406160651931321 1.4996348971649787 11.046085889950177 -3 -1 0
1071 108 1 -0.091672 0.9625188618048828 8.103065754936079 8.413515277291552 3 1 0
1016 102 2 -0.091672 5.144349214643317 8.730859795902541 11.93726969581306 1 6 1
1078 108 6 0.404798 3.2390518275838374 7.259415459885648 8.328491613833148 3 1 0
1020 102 10 -0.358962 7.479949826298692 8.142191641967814 10.935387064767546 1 6 1
263 27 7 -0.358962 12.137417290378599 1.3064403913642195 8.1037265927594 0 2 -1
821 83 1 -0.091672 8.371673402927536 6.185256658878566 13.647719740183433 3 3 0
824 83 4 0.404798 7.897455414872104 4.888309341086166 13.233747215695406 3 3 0
1458 146 6 0.404798 3.523305804912639 0.6913725263837476 10.259354050579393 -3 -1 0
826 83 2 -0.091672 7.819897945194028 6.9041284955111 14.634820100487225 3 3 0
1460 146 10 -0.358962 4.48722133076491 1.0981892256833121 9.758387971649315 -3 -1 0
584 59 4 0.404798 8.761502236808731 1.1168863590127687 10.867308175150368 -1 4 0
1018 102 6 0.404798 6.4506148540882275 8.42447616642623 11.389683180005198 1 6 1
585 59 8 -0.358962 8.041055080531303 1.87881931578306 10.371310135199607 -1 4 0
587 59 5 0.404798 8.632828681775184 0.33243167696908527 13.470575302888285 -1 4 0
746 75 2 -0.091672 15.351449051718776 9.537992249211793 9.80520030687018 -2 0 2
1524 153 4 0.404798 15.45121107850813 0.9940584856100663 8.674499846491498 -2 2 -1
1522 153 3 0.404798 14.555467434286358 1.3152780598056595 10.9603343271206 -2 2 -1
257 26 5 0.404798 8.0989994802707 5.1745311970272345 9.346610208323904 2 3 -2
123 13 7 -0.358962 6.75915803120155 10.418996102979035 7.94075884139588 -1 2 -2
828 83 6 0.404798 8.289115648762646 8.210908489649514 15.113300343500864 3 3 0
822 83 3 0.404798 9.539847352072428 6.723719480908527 13.067088580913905 3 3 0
823 83 7 -0.358962 10.497980131202418 7.1239897709480635 12.55001482877351 3 3 0
255 26 8 -0.358962 10.813407733593372 3.7061564179680904 11.42401302246746 2 3 -2
254 26 4 0.404798 10.693002526610806 4.66359727409383 10.780266495248355 2 3 -2
251 26 1 -0.091672 10.464492843693133 5.777171066321718 9.918506242344563 2 3 -2
256 26 2 -0.091672 9.318309244058698 5.964795497788192 9.250179811282587 2 3 -2
654 66 4 0.404798 14.658197689526222 4.949898291037739 11.866464869762957 0 0 0
1523 153 7 -0.358962 13.942152663305732 2.0678724070720014 11.595193943166837 -2 2 -1
1521 153 1 -0.091672 15.049711983908963 0.37334465070516004 9.975409884896678 -2 2 -1
252 26 3 0.404798 11.605660788303899 6.612111254328807 9.754289041019351 2 3 -2
253 26 7 -0.358962 12.543129023431844 7.294558709663771 9.786207287542629 2 3 -2
747 75 5 0.404798 14.21660209955033 10.392681640153567 9.86938846466791 -2 0 2
744 75 4 0.404798 14.838518468122857 8.58389783993383 11.96191257239819 -2 0 2
581 59 1 -0.091672 9.724511401907964 0.15931191388747057 11.296343067363557 -1 4 0
745 75 8 -0.358962 14.19368317279835 8.598247060913911 12.926060662389439 -2 0 2
655 66 8 -0.358962 13.646433842119414 5.066750236299793 12.421694133107513 0 0 0
130 13 10 -0.358962 10.363239395621877 10.101136178437862 9.513796303067686 -1 2 -2
1017 102 5 0.404798 4.934990444672826 10.056885211163733 12.348923451342001 1 6 1
827 83 5 0.404798 6.798730750311095 6.239351169176446 15.335323181802156 3 3 0
1000 100 10 -0.358962 12.018671712301066 2.539530946048011 14.825365764308543 1 -3 0
998 100 6 0.404798 11.703694364203994 1.6288881276162677 15.471213209218513 1 -3 0
830 83 10 -0.358962 8.717176415115187 9.242264591464343 15.427415860125107 3 3 0
741 75 1 -0.091672 15.615728344467867 8.621916261902568 10.746774117434153 -2 0 2
433 44 7 -0.358962 5.661726982006952 5.854933463054545 21.302107000565908 0 -1 6
432 44 3 0.404798 5.436168636820398 6.518008695670126 20.377415341840397 0 -1 6
134 14 4 0.404798 3.615175528684993 5.253955574622332 23.2439209674331 1 1 2
14 2 4 0.404798 1.4294986689371771 9.378081403904238 21.004902170141435 2 0 0
132 14 3 0.404798 2.446022410690593 4.420117356240737 21.204454639729494 1 1 2
133 14 7 -0.358962 2.469675915552531 4.049372063272429 20.10555135866298 1 1 2
1284 129 4 0.404798 3.9851712391383165 1.2234713789675327 20.357567090944773 0 -1 2
1285 129 8 -0.358962 2.8774966904487376 1.172173366034443 20.698192399593704 0 -1 2
1281 129 1 -0.091672 5.3698960859543385 1.3355058024196649 20.022894193992638 0 -1 2
15 2 8 -0.358962 2.143637095990839 9.439510019888681 21.91695086847376 2 0 0
431 44 1 -0.091672 5.0816632171312115 7.273857969732248 19.23778303839613 0 -1 6
436 44 2 -0.091672 6.065356886394782 7.958325362147433 18.63824058647817 0 -1 6
239 24 9 -0.358962 6.043370310128985 9.185896048761915 23.330902011879918 -1 -3 3
829 83 9 -0.358962 5.949255013854724 5.756097727356545 15.96018883420722 3 3 0
992 100 3 0.404798 13.807351561283193 0.15389053163014066 16.60964212348626 1 -3 0
435 44 8 -0.358962 2.6131599008841686 7.383976986885724 18.40507988418835 0 -1 6
434 44 4 0.404798 3.684354853063561 7.295299369562036 18.841288148207912 0 -1 6
810 81 10 -0.358962 2.812083617055638 2.749163935336614 17.04908002848346 -1 2 -1
1163 117 7 -0.358962 6.1996203351879915 3.1048386967122408 22.75808974817977 -3 2 -3
876 88 2 -0.091672 15.606027785502041 2.6999693070392956 21.945733436907194 2 2 -2
437 44 5 0.404798 5.941694282249769 8.632827382109522 17.443076306518606 0 -1 6
13 2 7 -0.358962 0.9447078256000724 9.546317282061642 17.508752294913123 2 0 0
808 81 6 0.404798 1.6919716914569127 3.0493832009593054 17.077674839222343 -1 2 -1
993 100 7 -0.358962 14.853326507247708 0.6506464866413173 16.540577427942807 1 -3 0
12 2 3 0.404798 0.7195493268927216 9.42990546679903 18.64072046379004 2 0 0
914 92 4 0.404798 14.775275557831664 10.068721988418906 23.294410762614035 0 1 -1
439 44 9 -0.358962 5.90878946448134 9.187616690171659 16.424878841271372 0 -1 6
1286 129 2 -0.091672 6.305422151486003 0.492893173265217 20.481582460702633 0 -1 2
806 81 2 -0.091672 0.270781763964589 3.286732533403099 17.233822200342956 -1 2 -1
1290 129 10 -0.358962 8.74108090086242 0.9478837999206406 19.820333059285353 0 -1 2
803 81 7 -0.358962 0.26853957161321 0.2430062267852034 15.70606493605276 -1 2 -1
996 100 2 -0.091672 11.47822590927862 0.4696420259669105 16.279251231269882 1 -3 0
1282 129 3 0.404798 5.788185477776642 2.34856345392089 19.17715648509836 0 -1 2
475 48 8 -0.358962 11.202156199400962 9.930934146583851 18.22571433392573 -1 1 1
11 2 1 -0.091672 0.41373016196473145 9.334607883170472 20.071008996858012 2 0 0
1001 101 1 -0.091672 10.780048410538535 0.10128664897792296 23.249577337633166 -1 -1 1
1162 117 3 0.404798 7.075868547711391 3.6953447383792994 23.236724969151112 -3 2 -3
877 88 5 0.404798 15.41526366546677 3.3522934261540307 23.174865346230277 2 2 -2
1170 117 10 -0.358962 10.37101112527268 2.954352415350308 21.32331087096844 -3 2 -3
997 100 5 0.404798 10.105658586837025 0.0949758692215044 16.468479412489938 1 -3 0
1288 129 6 0.404798 7.673747410361913 0.6218916641911261 20.136763688611254 0 -1 2
917 92 5 0.404798 14.188846326173568 8.878302387371702 20.870774286793292 0 1 -1
1322 133 3 0.404798 14.494111180358813 4.12569740790462 17.49270150049365 0 1 -1
1323 133 7 -0.358962 15.19607277435295 3.2127898615406685 17.632163768553575 0 1 -1
1329 133 9 -0.358962 10.735995205164933 6.948022675418612 16.716917106586035 0 1 -1
919 92 9 -0.358962 14.392467275866881 9.399235082924752 19.854522533305367 0 1 -1
911 92 1 -0.091672 14.179410399220691 8.805945854014219 23.31738535594698 0 1 -1
916 92 2 -0.091672 13.99744265680887 8.208794962864976 22.131679429712513 0 1 -1
878 88 6 0.404798 14.441788765081094 2.1624279859381703 21.330848220807265 2 2 -2
438 44 6 0.404798 7.354422158499189 7.91797795903055 19.253634384040726 0 -1 6
880 88 10 -0.358962 13.510558760466015 1.7100442612408078 20.807627771985523 2 2 -2
918 92 6 0.404798 13.458848851144023 6.90421114869811 22.01064083621731 0 1 -1
1330 133 10 -0.358962 11.142252336539965 2.8232010920824653 18.314571075500503 0 1 -1
920 92 10 -0.358962 13.068415113553197 5.811996096234671 22.02573293862484 0 1 -1
1325 133 8 -0.358962 14.617899352331692 7.2586318886382655 16.141754759449295 0 1 -1
131 14 1 -0.091672 2.4163544296537682 5.0965787768921675 22.474561326177554 1 1 2
1283 129 7 -0.358962 6.168626143927308 3.1493887122126543 18.429129881908114 0 -1 2
237 24 5 0.404798 5.840828797579575 10.315804324297217 23.16391633447818 -1 -3 3
1166 117 2 -0.091672 9.413551426687041 4.408499931608788 23.223642853517653 -3 2 -3
440 44 10 -0.358962 8.41535825945906 7.8634192927707485 19.719507682521474 0 -1 6
1321 133 1 -0.091672 13.593914122875674 5.193585471282824 17.22337215231028 0 1 -1
1324 133 4 0.404798 14.108645579174038 6.320112274968186 16.595011339743696 0 1 -1
1168 117 6 0.404798 9.963178140889937 3.6011357733281586 22.195631648233135 -3 2 -3
136 14 2 -0.091672 1.2182486911631536 5.429258119502243 22.974028126257156 1 1 2
479 48 9 -0.358962 11.619505694713798 9.601468147107054 22.204836895295287 -1 1 1
1328 133 6 0.404798 11.697927672557206 3.7199911417609077 17.83229260021132 0 1 -1
1326 133 2 -0.091672 12.281087147446636 4.925957541219308 17.244834145148783 0 1 -1
1327 133 5 0.404798 11.400498411574848 6.028000780885838 16.956907100327985 0 1 -1
327 33 5 0.404798 4.974678746523544 3.0598480462203277 26.909948146853797 2 2 0
326 33 2 -0.091672 6.131354290616713 2.2839075764644905 26.591337668480236 2 2 0
328 33 6 0.404798 6.117371456442754 1.0979868026402515 25.804216173905306 2 2 0
574 58 4 0.404798 7.197419755903009 9.891413638149013 29.072059581326588 1 3 0
577 58 5 0.404798 5.518394697496493 9.829792215852402 26.83397307306313 1 3 0
845 85 8 -0.358962 6.906390239893423 1.4063339893827866 30.038683164314246 1 4 -3
576 58 2 -0.091672 5.3051291985956945 8.9220609210993 27.914318604470008 1 3 0
572 58 3 0.404798 5.905451549612768 8.172663700851304 30.189636748175246 1 3 0
571 58 1 -0.091672 6.142430681509328 8.926509312144072 28.960505216773996 1 3 0
329 33 9 -0.358962 4.001316867711106 3.6719292876641467 27.06332091671535 2 2 0
879 88 9 -0.358962 15.214904270723887 3.9509302779528865 24.148050852223363 2 2 -2
1378 138 6 0.404798 14.770231561386936 2.0125364868363147 27.762410545918367 3 -1 -2
680 68 10 -0.358962 3.8323532602405135 0.22327046751941454 27.300073491511977 3 -4 0
243 25 7 -0.358962 3.0256873740555954 9.358764409880413 30.74963768816018 2 5 1
50 5 10 -0.358962 4.6135762753273 4.494771223395676 30.90020257470001 -2 0 0
674 68 4 0.404798 0.03268287935480885 2.8278992007342834 25.717363731909575 3 -4 0
1161 117 1 -0.091672 8.160357912884233 4.48661349638764 23.691621786969883 -3 2 -3
578 58 6 0.404798 4.176151599580002 8.01018756522814 27.822704045120023 1 3 0
678 68 6 0.404798 2.8359650523418023 0.8140696810325472 27.238699069391103 3 -4 0
580 58 10 -0.358962 3.319523508614672 7.230062141947898 27.766200646164354 1 3 0
844 85 4 0.404798 6.402699856773545 0.38100837339291593 30.2401859577845 1 4 -3
1167 117 5 0.404798 10.481862829924395 5.108760633222906 23.859503757863173 -3 2 -3
676 68 2 -0.091672 1.6809191737141793 1.6464289052410905 27.11513326321101 3 -4 0
671 68 1 -0.091672 1.0653162311855113 1.875925074523697 25.94724434590657 3 -4 0
137 14 5 0.404798 1.0463497551118222 5.824503988157346 24.306632831951084 1 1 2
139 14 9 -0.358962 0.9247642759690939 6.010812226377838 25.445099427023703 1 1 2
679 68 9 -0.358962 1.152514343562643 3.1415243910019495 29.13589027701286 3 -4 0
558 56 6 0.404798 11.277624350579215 10.42149486079901 27.043332653296165 2 4 -4
677 68 5 0.404798 1.3401736719127626 2.3969268264941186 28.26643157067683 3 -4 0
1169 117 9 -0.358962 11.305868119987908 5.753616513666487 24.36027932949235 -3 2 -3
1164 117 4 0.404798 7.804075253972971 5.3668896746337555 24.693520213223373 -3 2 -3
1007 101 5 0.404798 13.141840827139008 0.1748290445491956 23.66343711626342 -1 -1 1
913 92 7 -0.358962 13.98896666278731 7.488157179727967 25.48728014615499 0 1 -1
672 68 3 0.404798 1.5711060248841802 1.2421907209150487 24.761278959038993 3 -4 0
323 33 7 -0.358962 9.197452772706484 0.8141237864199968 27.131768133732887 2 2 0
321 33 1 -0.091672 7.264632989557433 2.458157884270055 27.28481889936754 2 2 0
1006 101 2 -0.091672 11.826908453774996 0.7115163628676567 23.82168199799909 -1 -1 1
912 92 3 0.404798 14.081544365356212 8.071009886573563 24.488625011322128 0 1 -1
324 33 4 0.404798 7.46814389924299 3.5630863944980877 28.226976685476803 2 2 0
325 33 8 -0.358962 7.651778314474276 4.4296877566182165 28.97589622113033 2 2 0
322 33 3 0.404798 8.39938703408121 1.6559609610965667 27.13288294682452 2 2 0
305 31 8 -0.358962 11.483401510717423 2.745977783224177 29.301259089904416 -1 2 0
304 31 4 0.404798 11.359154535716174 2.7620919370989596 30.454473303326218 -1 2 0
556 56 2 -0.091672 10.506574478889723 9.475115009381023 26.242191142329787 2 4 -4
554 56 4 0.404798 9.567335025226136 8.834213331120552 24.25161976121641 2 4 -4
573 58 7 -0.358962 5.800617984715418 7.547376673238897 31.16104091066386 1 3 0
559 56 9 -0.358962 10.400051594313279 6.965740171017024 26.867269293057745 2 4 -4
551 56 1 -0.091672 10.015313319248465 9.873537433684762 25.060868983033334 2 4 -4
1372 138 3 0.404798 14.362458939368494 4.834347492461555 28.184102852069174 3 -1 -2
1433 144 7 -0.358962 12.07321653944954 8.513740055375214 29.625331860584996 -2 -2 -2
79 8 9 -0.358962 0.7955693837097871 9.656166089635747 25.494277042590465 -1 0 -3
1431 144 1 -0.091672 14.031508727919764 10.146327325506393 30.07197173649426 -2 -2 -2
1432 144 3 0.404798 12.942708631394998 9.266058263420812 29.778957327483102 -2 -2 -2
1010 101 10 -0.358962 11.51256028827007 2.523430078058241 25.615760998956723 -1 -1 1
1373 138 7 -0.358962 13.529865903132183 5.20444374991987 28.902028750523897 3 -1 -2
673 68 7 -0.358962 1.9086302515607745 0.7562803430694812 23.763497170229027 3 -4 0
330 33 10 -0.358962 6.016619368883343 0.2448888049913501 25.02468245530677 2 2 0
557 56 5 0.404798 10.444650028155648 8.090281792383216 26.58616946488928 2 4 -4
1380 138 10 -0.358962 14.124024570232486 1.2415349163202465 28.33996841800055 3 -1 -2
1003 101 7 -0.358962 8.315966689111137 0.7328828905936107 23.78322095740785 -1 -1 1
1008 101 6 0.404798 11.601363815520353 1.6982232420376457 24.805361340763316 -1 -1 1
1165 117 8 -0.358962 7.638144748051 6.122033024935104 25.55828929734879 -3 2 -3
135 14 8 -0.358962 4.638764815828725 5.327932461937676 23.784654164592705 1 1 2
1371 138 1 -0.091672 15.405060632535802 4.226519582983929 27.349896330636923 3 -1 -2
1376 138 2 -0.091672 15.590181361444111 2.922237126858793 27.10458513316252 3 -1 -2
1489 149 9 -0.358962 13.905887376381957 0.6293222852232254 30.834348708805 2 6 -2
1487 149 5 0.404798 14.822647964813003 1.197624494363641 31.261177267302035 2 6 -2
555 56 8 -0.358962 9.055698846171525 7.933051619271708 23.73033675225955 2 4 -4
1002 101 3 0.404798 9.421522174536335 0.4777083447748782 23.541905783415576 -1 -1 1
798 80 6 0.404798 5.200366322626633 14.79079396396802 2.246381523450411 2 2 2
796 80 2 -0.091672 4.901808520069867 14.083908275016014 3.4049401957606573 2 2 2
791 80 1 -0.091672 4.910457676463625 14.771664069053683 4.554947656205156 2 2 2
797 80 5 0.404798 4.638417068579062 12.673379438443666 3.3387810542820264 2 2 2
800 80 10 -0.358962 5.441531947195908 15.364177122716075 1.2672641196864511 2 2 2
794 80 4 0.404798 4.650254625528622 14.093538388093343 5.712812595558953 2 2 2
792 80 3 0.404798 5.04099521070672 16.140633229570415 4.5881126078787355 2 2 2
410 41 10 -0.358962 14.529442176048043 15.537528784976516 1.2520064868573788 0 0 -2
799 80 9 -0.358962 4.35112965278203 11.54952482536804 3.3428731861403733 2 2 2
1534 154 4 0.404798 6.322231446505642 19.85231571979071 7.181936636255001 2 -1 -1
795 80 8 -0.358962 4.47889684642124 13.433491883642176 6.651202234731112 2 2 2
1029 103 9 -0.358962 2.95650430744016 19.46188835791804 6.459936917115289 -1 2 -2
428 43 6 0.404798 0.42331221704714816 16.320586895696707 5.598106777365692 0 -1 1
1531 154 1 -0.091672 6.262763192504594 20.421060609193987 5.938819202872568 2 -1 -1
793 80 7 -0.358962 4.995003455765666 17.29299691801305 4.7127828930024345 2 2 2
349 35 9 -0.358962 6.833849929727413 18.12001669580243 1.5443495257499915 -1 -3 1
1069 107 9 -0.358962 13.772993788389398 17.567201439173108 3.385718755347512 -1 -1 0
347 35 5 0.404798 7.7302259586281385 18.095702727924724 0.8084698857520296 -1 -3 1
546 55 2 -0.091672 1.0819491349418835 15.895522662330706 0.7886354281155186 1 -4 0
429 43 9 -0.358962 0.7788053458856902 18.528860230207588 3.0758688383477435 0 -1 1
1538 154 6 0.404798 7.183057555358065 20.53115648031019 3.795714571606871 2 -1 -1
1598 160 6 0.404798 0.915581260005787 12.557818634819201 7.032530363001523 3 0 1
1536 154 2 -0.091672 7.068731412112155 19.88243445759352 5.0136721377038445 2 -1 -1
113 12 7 -0.358962 7.383300502932534 13.008982936817478 1.88105705033058 1 2 4
547 55 5 0.404798 1.7937755682605794 15.48818847193932 1.9520526416525732 1 -4 0
549 55 9 -0.358962 2.501497969334865 15.252582173605889 2.8404324373529555 1 -4 0
430 43 10 -0.358962 0.7780006129702968 15.269973735903651 5.938706435934586 0 -1 1
112 12 3 0.404798 7.29022406496241 13.26839011355542 0.7542719365064651 1 2 4
1599 160 9 -0.358962 0.15257455865754024 11.778617308856939 3.839707815758976 3 0 1
709 71 9 -0.358962 10.95436993297827 11.211696190670544 3.788169359858824 0 -1 0
122 13 3 0.404798 7.658609195477215 10.962295311816675 7.4494202990218295 -1 2 -2
1027 103 5 0.404798 2.4591075039554036 19.153464579713788 7.461471333132884 -1 2 -2
83 9 7 -0.358962 4.416265462100806 18.5696718994867 0.41436935612418135 -3 0 -2
548 55 6 0.404798 1.1286106427246683 17.240232788296503 0.4429324252497424 1 -4 0
971 98 1 -0.091672 12.204780702340141 16.170263470457932 7.481634158462692 -3 0 -3
973 98 7 -0.358962 13.914819506826348 14.270850817086172 7.197251466318298 -3 0 -3
975 98 8 -0.358962 11.78506853317332 17.91486868675151 5.601628784282099 -3 0 -3
1435 144 8 -0.358962 14.229943291015367 10.729074643950813 1.2335642943957696 -2 -2 -1
39 4 9 -0.358962 14.836646166756225 12.66652218992979 4.181523201363858 3 1 3
1067 107 5 0.404798 14.782831003218451 17.928847696356414 2.944084535750507 -1 -1 0
974 98 4 0.404798 11.98087332459217 17.243051905887643 6.526789684474474 -3 0 -3
408 41 6 0.404798 13.752120179770223 14.740884793421788 0.9253126644247228 0 0 -2
126 13 2 -0.091672 9.917614161239657 11.517284032265168 7.425529266294302 -1 2 -2
129 13 9 -0.358962 11.928123117420927 12.547647790384216 6.228888283298954 -1 2 -2
972 98 3 0.404798 13.1455654193038 15.126693158872422 7.343477405658529 -3 0 -3
348 35 6 0.404798 10.084970785796344 18.043801890178997 0.6426007354323648 -1 -3 1
403 41 7 -0.358962 10.941890533606175 14.6453480778259 3.29724156394395 0 0 -2
402 41 3 0.404798 11.215357401668438 14.131614836874014 2.2938004730390738 0 0 -2
121 13 1 -0.091672 8.714741153962157 11.698879886657325 6.8636400660499035 -1 2 -2
545 55 8 -0.358962 0.7145246982767498 12.456613176830828 0.8676128345522384 1 -4 0
124 13 4 0.404798 8.392904410887533 12.621052179402392 5.828142081735748 -1 2 -2
125 13 8 -0.358962 8.263713909106132 13.305121175706102 4.900263100056662 -1 2 -2
1539 154 9 -0.358962 8.439130128372422 17.70916391501042 5.354186966692635 2 -1 -1
127 13 5 0.404798 11.018460453001493 12.174050113773625 6.844143190653684 -1 2 -2
1537 154 5 0.404798 7.849455822213191 18.701669112722104 5.240971945993763 2 -1 -1
1434 144 4 0.404798 14.13836061448203 10.44056987583348 0.113752876768975 -2 -2 -1
404 41 4 0.404798 10.659853600257344 12.6748429982178 0.44297547998711706 0 0 -2
401 41 1 -0.091672 11.56412022647153 13.621645325069961 0.991369538102285 0 0 -2
350 35 10 -0.358962 11.059771392958703 18.144125946550172 1.2633251960409728 -1 -3 1
406 41 2 -0.091672 12.754257997355117 13.859395519813326 0.4233493618967248 0 0 -2
1475 148 8 -0.358962 10.363128926704547 20.382482841982853 3.5555646912103915 0 -1 -1
427 43 5 0.404798 0.2921033113829618 18.045276228600812 4.011212434228982 0 -1 1
37 4 5 0.404798 15.509317206585916 13.602658747996937 4.310991408127382 3 1 3
120 12 10 -0.358962 3.8521640573361218 12.531884620357497 0.14919306349724898 1 2 4
82 9 3 0.404798 4.153677519168178 19.65712266552477 0.7211239698883031 -3 0 -2
544 55 4 0.404798 0.6697769528268989 13.567025489010058 0.5350739203856161 1 -4 0
1600 160 10 -0.358962 1.9084847340921993 12.461405945985906 7.624516241046702 3 0 1
541 55 1 -0.091672 0.5228719087539301 14.895418294269046 0.09378011670809269 1 -4 0
550 55 10 -0.358962 1.2301184197852881 18.339278776245717 0.08600936452290142 1 -4 0
951 96 1 -0.091672 1.7440962575497805 19.205116060919696 13.844858683877101 0 -3 0
956 96 2 -0.091672 0.7816889649826123 19.85498030550674 14.513475664479781 0 -3 0
1368 137 6 0.404798 8.337245605500241 12.418878798283236 11.95550348921705 2 -2 -1
954 96 4 0.404798 1.5928875525533186 17.738957813081335 13.825319796306736 0 -3 0
952 96 3 0.404798 2.946721889294023 19.70689523384981 13.239567458406539 0 -3 0
953 96 7 -0.358962 3.8684151841114183 20.134630532678454 12.679992640229774 0 -3 0
211 22 1 -0.091672 5.921193299063682 15.369364608005982 10.018721260742067 -1 -2 0
217 22 5 0.404798 6.832497827636296 17.31325646028564 11.184827590032722 -1 -2 0
220 22 10 -0.358962 5.100806540923527 15.530129952050174 13.477209031897312 -1 -2 0
218 22 6 0.404798 5.451900483667467 15.730611905936158 12.389946404986803 -1 -2 0
1098 110 6 0.404798 2.2961722205910995 12.806864471611496 14.754475949130232 -3 -2 -2