LAMMPS data file via write_data, version 29 Sep 2021, timestep = 5000000

1620 atoms
10 atom types
1458 bonds
9 bond types
1620 angles
10 angle types
1944 dihedrals
12 dihedral types

0 31.303 xlo xhi
0 31.303 ylo yhi
0 31.303 zlo zhi

Masses

1 12.01
2 12.01
3 12.01
4 12.01
5 12.01
6 12.01
7 14.01
8 14.01
9 14.01
10 14.01

Bond Coeffs # harmonic

1 400 1.426
2 400 1.426
3 400 1.426
4 400 1.426
5 549 1.34
6 650 1.16
7 650 1.16
8 650 1.16
9 650 1.16

Angle Coeffs # harmonic

1 70 116.8
2 70 116.8
3 70 121.6
4 70 121.6
5 70 121.6
6 70 121.6
7 70 178.9
8 70 178.9
9 70 178.9
10 70 178.9

Dihedral Coeffs # opls

1 0 0 0 0
2 0 0 0 0
3 0 0 0 0
4 0 0 0 0
5 0 0 0 0
6 0 0 0 0
7 0 0 0 0
8 0 0 0 0
9 0 14 0 0
10 0 14 0 0
11 0 14 0 0
12 0 14 0 0

Atoms # full

1617 162 5 0.404798 3.2450836871556326 4.551027851172779 4.589363226585714 1 0 1
1619 162 9 -0.358962 4.025865825675784 5.386677843619287 4.783446565302566 1 0 1
1616 162 2 -0.091672 2.2174068808738965 3.5994396760286085 4.241594098812429 1 0 1
1103 111 7 -0.358962 7.54691473026742 6.288514409288023 6.104091878799454 0 1 0
1618 162 6 0.404798 2.6633717524106166 2.319230225576908 3.7795814092143756 1 0 1
1614 162 4 0.404798 0.6705355739959687 5.254983226086091 5.002584665434585 1 0 1
1314 132 4 0.404798 0.5185777494896776 0.7745687820830567 0.8840554868645246 0 0 2
1620 162 10 -0.358962 3.0961400413003566 1.287341294602002 3.4737761718737263 1 0 1
1330 133 10 -0.358962 15.274050998254214 2.1716148645248956 0.28692280433299694 1 1 -2
907 91 5 0.404798 6.695181631158745 1.0599883240853725 5.313726618662842 -1 1 2
909 91 9 -0.358962 6.014709236943919 1.9969920991286922 5.246041713396213 -1 1 2
396 40 2 -0.091672 2.617622799480315 9.130413466072325 4.112856373820581 0 -2 0
398 40 6 0.404798 3.1101551987274925 8.518574824609955 5.3011330564339225 0 -2 0
399 40 9 -0.358962 1.8773616744131494 7.570626629159145 2.250111958719987 0 -2 0
1315 132 8 -0.358962 1.21791655562496 1.5849789917694366 1.331001265009555 0 0 2
1611 162 1 -0.091672 0.9712978632440785 3.9232720075832463 4.613003494586118 1 0 1
400 40 10 -0.358962 3.5222011746872988 8.09534401739518 6.299478588745081 0 -2 0
244 25 4 0.404798 8.536284532443464 6.872292155155195 0.9672997227413132 0 -1 0
397 40 5 0.404798 2.2339042114070966 8.299861751596909 3.07878170957485 0 -2 0
1102 111 3 0.404798 6.875119438721293 6.028432693113219 7.013294049504553 0 1 0
250 25 10 -0.358962 4.78794519256186 9.777011966956701 0.6674259407224417 0 -1 0
246 25 2 -0.091672 6.956005750488733 8.446440831185921 0.3010019077028333 0 -1 0
248 25 6 0.404798 5.768269849667952 9.186392528545138 0.47839618996684 0 -1 0
1404 141 4 0.404798 5.167677051550944 3.7880326603276915 1.1966820972987164 0 0 1
1405 141 8 -0.358962 4.307385657768365 4.563977612354368 1.1383027382213113 0 0 1
1401 141 1 -0.091672 6.129071877605556 2.80350780611961 0.9676280327064628 0 0 1
462 47 3 0.404798 13.710118922379296 4.1471175450329625 4.036731388178232 0 1 2
1023 103 7 -0.358962 12.433501724213528 5.461446384121256 7.014670939622341 1 2 1
464 47 4 0.404798 12.811123189212005 2.2384936781255362 5.045905669836732 0 1 2
1303 131 7 -0.358962 7.053449949512923 9.163836916813088 7.224140359541867 -1 0 0
1615 162 8 -0.358962 0.3837038944490053 6.325757317111115 5.344301557559928 1 0 1
669 67 9 -0.358962 14.11460457911154 9.748581527415704 2.599078599968021 0 0 -2
524 53 4 0.404798 13.00602636009509 6.129011861094121 1.6537389923899122 1 1 2
521 53 1 -0.091672 12.428276632114965 5.1959568260587465 0.6992713646773638 1 1 2
1030 103 10 -0.358962 14.106908336412792 9.377424492672475 6.2710974251484295 1 2 1
1402 141 3 0.404798 7.108946595705784 2.648832917906891 1.9761027044359707 0 0 1
755 76 8 -0.358962 10.033122162731374 8.085449712592307 6.889297247101313 0 0 0
1085 109 8 -0.358962 15.565202846229862 3.3717640517304344 6.534135086202357 -1 0 2
465 47 8 -0.358962 12.934296511000761 1.1741517145194453 5.490432968974941 0 1 2
470 47 10 -0.358962 10.85249176663822 6.585140288413021 3.838151591526409 0 1 2
525 53 8 -0.358962 13.593179863636667 6.887082766224489 2.306563062806634 1 1 2
466 47 2 -0.091672 11.306348112602048 4.0746505489889575 4.611683813915836 0 1 2
463 47 7 -0.358962 14.685894495284254 4.618626384945371 3.623038934549534 0 1 2
1403 141 7 -0.358962 7.985056622850239 2.5324242450039876 2.727421705893248 0 0 1
214 22 4 0.404798 11.791512262042804 0.6038605595836578 1.1170393867001946 1 1 0
1028 103 6 0.404798 13.770921525896895 8.890488481970534 7.268898099321098 1 2 1
242 25 3 0.404798 6.535355808999827 7.047939845038508 2.2650720572709906 0 -1 0
468 47 6 0.404798 11.060151541936005 5.5115223869978465 4.225220092419602 0 1 2
522 53 3 0.404798 11.287582813774891 4.386582544350078 1.0569306665307796 1 1 2
469 47 9 -0.358962 9.355187762321902 2.648071047087391 5.372808554791897 0 1 2
754 76 4 0.404798 10.082005588335548 8.864774894613747 6.031472863185865 0 0 0
215 22 8 -0.358962 12.302091703359629 1.231735373204729 1.9481121029140211 1 1 0
241 25 1 -0.091672 7.27506429532605 7.4172076781442255 1.097544917066559 0 -1 0
243 25 7 -0.358962 5.959633428029093 6.8222762018754155 3.2465096065043157 0 -1 0
523 53 7 -0.358962 10.388270839471534 3.67976765129037 1.2499350236459954 1 1 2
467 47 5 0.404798 10.23286462925757 3.289316061409767 4.967730598455265 0 1 2
461 47 1 -0.091672 12.525674579292259 3.527775092053491 4.512839479531289 0 1 2
1189 119 9 -0.358962 0.2397996064641434 10.196969891657123 6.2349173335581085 1 -1 0
753 76 7 -0.358962 8.643277985379232 9.318547529785036 2.9267618383375185 0 0 0
1105 111 8 -0.358962 4.227631397323409 3.8134479460765527 7.694708774485761 0 1 0
245 25 8 -0.358962 9.657487993231387 6.575114525321641 0.9535790765822315 0 -1 0
1022 103 3 0.404798 12.62162319350708 6.299679175262446 7.794142620238872 1 2 1
751 76 1 -0.091672 10.166271552550226 9.821602534803901 4.980992837708127 0 0 0
752 76 3 0.404798 9.318222334204005 9.541526478774479 3.8434572717878153 0 0 0
1077 108 5 0.404798 4.171658306693301 2.54963986900627 12.644452083828845 1 0 0
1079 108 9 -0.358962 3.9454017025062234 2.3097908548201294 11.532300831158631 1 0 0
1074 108 4 0.404798 6.75679644143158 2.8654372224443354 13.988315756830346 1 0 0
837 84 5 0.404798 2.1758287656470015 7.144661568063777 9.655845397331898 -1 -1 -1
836 84 2 -0.091672 3.012580603262239 7.5984695380667215 10.691253680303312 -1 -1 -1
1075 108 8 -0.358962 7.819344090029395 2.686913610362385 13.558522997191774 1 0 0
838 84 6 0.404798 3.9554699584689748 8.567999963762563 10.263449756059789 -1 -1 -1
957 96 5 0.404798 5.514780786752096 0.46871978821970406 9.457648455559989 1 0 1
729 73 9 -0.358962 8.369778169690415 8.526548735737208 13.546832744587116 0 0 2
731 74 1 -0.091672 11.320949114444014 1.3899605180516295 10.02271705987009 0 1 0
831 84 1 -0.091672 2.8586209557286293 7.085766777855031 11.919680441947573 -1 -1 -1
832 84 3 0.404798 3.6735482723892217 7.468573779953871 12.963041848435665 -1 -1 -1
1107 111 5 0.404798 5.781708929946821 5.424473644015864 10.471979247924462 0 1 0
1109 111 9 -0.358962 5.383010171549311 4.908995479881031 11.431625830727047 0 1 0
840 84 10 -0.358962 4.834465570947199 9.26699903087068 9.972989739325676 -1 -1 -1
1076 108 2 -0.091672 4.281957650410032 2.700231190969378 14.03860778617869 1 0 0
959 96 9 -0.358962 6.187478149264556 1.2978556312019858 9.00420384761096 1 0 1
833 84 7 -0.358962 4.3198687671842295 7.848783323779818 13.848090165096325 -1 -1 -1
1106 111 2 -0.091672 6.450240480446497 6.008265500574721 9.346155983154027 0 1 0
1292 130 3 0.404798 15.091101410605917 7.52283413522568 13.128082034396096 1 -1 -1
834 84 4 0.404798 2.0548216187943025 5.958622113675056 12.132968969597117 -1 -1 -1
1029 103 9 -0.358962 13.736995650064378 10.401553916688542 10.220741990251584 1 2 1
1078 108 6 0.404798 3.0927539976627965 2.505290596756824 14.813078593937368 1 0 0
734 74 4 0.404798 11.913760326392689 0.2636374195518535 10.667123565535675 0 1 0
1101 111 1 -0.091672 6.085714211118027 5.586697960483244 8.127549644149664 0 1 0
271 28 1 -0.091672 11.862183249864692 0.5746382832368467 15.169352941160808 1 -1 0
839 84 9 -0.358962 1.483029889185319 6.711339850430937 8.832521638600468 -1 -1 -1
738 74 6 0.404798 9.3374593817688 2.540785825969693 9.136898020957915 0 1 0
508 51 6 0.404798 0.5567574019789303 9.13700071708557 14.815050703955034 1 2 1
1108 111 6 0.404798 7.70220171229165 6.691423641979196 9.545918670710925 0 1 0
835 84 8 -0.358962 1.430024780066791 5.007943093329649 12.359769130505256 -1 -1 -1
721 73 1 -0.091672 10.37626334373065 6.649412034163655 15.63515463863572 0 0 2
1071 108 1 -0.091672 5.47186842015395 2.8924038625790573 14.62408369882084 1 0 0
1293 130 7 -0.358962 14.925615408651892 8.590657860374968 13.549943238194153 1 -1 -1
375 38 8 -0.358962 2.743477380984474 5.644686973393378 15.393763702873915 0 2 0
276 28 2 -0.091672 11.47534841497099 1.7805709923041315 14.73153435683502 1 -1 0
1294 130 4 0.404798 15.534717612779254 5.984633517810392 11.349478539278184 1 -1 -1
733 74 7 -0.358962 12.861555650898039 3.115800201871762 8.852154131409272 0 1 0
1298 130 6 0.404798 15.26891491803627 5.471995923787889 14.999925540299513 1 -1 -1
280 28 10 -0.358962 12.857564836154271 2.9726662975713403 12.863934884268158 1 -1 0
278 28 6 0.404798 12.320000313792324 2.488082532152553 13.770468369501174 1 -1 0
740 74 10 -0.358962 8.73826053051078 3.1842958455689816 8.380290068664124 0 1 0
1024 103 4 0.404798 12.609999740593981 6.768007344918949 10.0776800818726 1 2 1
1027 103 5 0.404798 13.664273805517267 9.4594918806217 9.547815059438154 1 2 1
1026 103 2 -0.091672 13.44634767371993 8.464152873401625 8.566328648746955 1 2 1
727 73 5 0.404798 9.089335406624132 7.693218929023402 13.912070776246416 0 0 2
1110 111 10 -0.358962 8.704467762852108 7.164263950104589 9.888679239476554 0 1 0
736 74 2 -0.091672 10.003775370114283 1.6348829024234035 10.048530875812276 0 1 0
737 74 5 0.404798 9.082612606444822 0.8873954771093232 10.7871347428276 0 1 0
427 43 5 0.404798 1.0078559820528366 0.010069526734318743 13.129148111900989 0 1 -1
1025 103 8 -0.358962 12.55153780504652 6.361342524246435 11.162486944078866 1 2 1
277 28 5 0.404798 10.510921765721298 2.5239765624531274 15.456117475334526 1 -1 0
739 74 9 -0.358962 8.20694485447548 0.376205691544439 11.350598132716406 0 1 0
728 73 6 0.404798 10.195019283090819 5.628552285316811 13.503245076868543 0 0 2
1296 130 2 -0.091672 15.50741682763783 5.228736085410522 13.635594207055993 1 -1 -1
510 51 10 -0.358962 0.6966826268027823 8.322756724757761 15.629315806118086 1 2 1
732 74 3 0.404798 12.189767882972342 2.356511199099436 9.415875166424799 0 1 0
730 73 10 -0.358962 10.217764792847317 4.706447951997051 12.799820424468207 0 0 2
726 73 2 -0.091672 9.946970701603725 6.6906087665414375 14.366450316275383 0 0 2
353 36 7 -0.358962 11.51768974685501 9.522249052185064 12.628340927441867 -1 1 1
1021 103 1 -0.091672 12.915189299742153 7.257182760946338 8.804433519556794 1 2 1
1295 130 8 -0.358962 15.552713748064082 5.8852261120101605 10.193885917023643 1 -1 -1
506 51 2 -0.091672 0.4090033341289791 9.9690522299018 13.693241012260218 1 2 1
1302 131 3 0.404798 7.595530501692704 9.932427544322026 7.903122778022752 -1 0 0
1291 130 1 -0.091672 15.323654644828336 6.1737751250634885 12.703535905273942 1 -1 -1
1080 108 10 -0.358962 2.035625243867715 2.441959617530112 15.28643679341572 1 0 0
1104 111 4 0.404798 5.05111250004263 4.607520651794402 7.886873842123256 0 1 0
376 38 2 -0.091672 4.8012398921543324 6.629820412443799 17.941298093486207 0 2 0
377 38 5 0.404798 5.800616296343193 6.406281209060543 16.988863711028447 0 2 0
579 58 9 -0.358962 7.776782462327335 6.774831734810119 23.11978199260892 -1 1 -1
3 1 7 -0.358962 5.452531212681148 9.088618749270559 22.58586443353911 2 1 -1
748 75 6 0.404798 5.178947269744703 2.8239954212086076 21.48258252122406 1 2 0
87 9 5 0.404798 8.144218879083537 9.918575480929352 20.322269004587504 1 -1 1
747 75 5 0.404798 3.3000601987458937 3.548835541178894 20.13706233387363 1 2 0
749 75 9 -0.358962 2.7580343387910733 3.536899878566345 19.111554892807224 1 2 0
577 58 5 0.404798 8.460822208860915 6.203458253662515 22.377338748108567 -1 1 -1
915 92 8 -0.358962 11.499366874401684 0.8343186819879714 22.709242779875737 -1 1 -1
378 38 6 0.404798 5.294674455594142 7.273050988474137 19.051351036194433 0 2 0
372 38 3 0.404798 2.4945745804552684 7.182995742164884 18.570320419982217 0 2 0
380 38 10 -0.358962 5.7804891769892555 7.710492838051835 20.00959353436365 0 2 0
744 75 4 0.404798 1.984976696572026 4.576804062331275 22.58139872707586 1 2 0
745 75 8 -0.358962 0.9352268413209599 5.0534687674220145 22.709523677638302 1 2 0
741 75 1 -0.091672 3.2454112091464222 3.960435130660315 22.56014022849026 1 2 0
746 75 2 -0.091672 3.8841691276507535 3.4875395336359127 21.481271340911636 1 2 0
371 38 1 -0.091672 3.4818027633669932 6.59701625309947 17.70976072002645 0 2 0
576 58 2 -0.091672 9.349989084010055 5.443605441681668 21.609217995865222 -1 1 -1
1073 108 7 -0.358962 5.689500984162524 3.1325178774234135 17.15269879945652 1 0 0
848 85 6 0.404798 0.23806292400141726 0.9359431999633637 19.06912700987401 3 0 1
1072 108 3 0.404798 5.563018073860237 3.0385555834276308 16.00344984248893 1 0 0
10 1 10 -0.358962 1.7926905980880825 9.217395726229858 22.634212504911773 2 1 -1
85 9 8 -0.358962 7.219531707636112 8.847477022653075 16.651375143865565 1 -1 1
574 58 4 0.404798 9.00147895365424 3.350186148888167 22.77561753957652 -1 1 -1
379 38 9 -0.358962 6.620028334945553 6.136896946630197 16.213237492729313 0 2 0
647 65 5 0.404798 13.36342701928946 7.532914032295693 20.781019032722515 -3 1 0
750 75 10 -0.358962 6.190055364956963 2.258927677696111 21.545502041394982 1 2 0
649 65 9 -0.358962 12.480356420369377 7.47871227659924 21.531251321481367 -3 1 0
373 38 7 -0.358962 1.6996633897159272 7.727322945691824 19.216404079071356 0 2 0
1213 122 7 -0.358962 7.354999698098968 0.20918811681118482 16.178304504608214 1 -1 1
847 85 5 0.404798 2.081243766647076 0.07618357927222874 17.77283045035366 3 0 1
374 38 4 0.404798 3.0151130051670525 6.061558700046204 16.4416339499597 0 2 0
916 92 2 -0.091672 13.805568589398177 3.3427565311723257 22.708051281491112 -1 1 -1
914 92 4 0.404798 12.210955718392965 1.6739769635461852 23.07559683070064 -1 1 -1
1153 116 7 -0.358962 14.122053523800481 9.427564605752167 22.605131880830232 0 1 -2
1152 116 3 0.404798 15.094878332631348 9.781096470342078 23.128798867894112 0 1 -2
723 73 7 -0.358962 12.132386144265396 4.8901865733468295 16.39040050147543 0 0 2
578 58 6 0.404798 9.952696811253604 6.164318121142499 20.4868409644923 -1 1 -1
580 58 10 -0.358962 10.479546666560704 6.604206601915326 19.551679288616945 -1 1 -1
725 73 8 -0.358962 10.177181219667215 8.649460858363977 17.312667697070165 0 0 2
919 92 9 -0.358962 14.213090157460604 2.5544045153961243 20.264363962164726 -1 1 -1
89 9 9 -0.358962 8.315037394560624 9.043282720415462 21.064080044162 1 -1 1
279 28 9 -0.358962 9.740931234342124 3.1998056248346876 16.00014841247553 1 -1 0
59 6 9 -0.358962 13.317030566438746 0.2629609341010687 18.980975422001947 -1 3 0
724 73 4 0.404798 10.18164961748076 7.730869040348659 16.604311072695545 0 0 2
572 58 3 0.404798 10.435827401399685 3.55201340966833 20.73986660301815 -1 1 -1
1499 150 9 -0.358962 14.497259895169732 2.1895673401245648 16.49472403206341 -1 0 -1
641 65 1 -0.091672 14.741593131483008 8.741023421123472 19.061376362363205 -3 1 0
646 65 2 -0.091672 14.357533994435876 7.640688264384857 19.722709201763898 -3 1 0
849 85 9 -0.358962 3.0590064971043294 0.3824291167291918 17.228961241705736 3 0 1
648 65 6 0.404798 15.11575009816194 6.405011650322944 19.49706967573529 -3 1 0
573 58 7 -0.358962 11.174548987211557 3.171291313550028 19.93058228634649 -1 1 -1
917 92 5 0.404798 13.989177992531506 2.907342555756472 21.346444404046487 -1 1 -1
571 58 1 -0.091672 9.568119684531604 4.125845972923676 21.716591293753634 -1 1 -1
644 65 4 0.404798 14.086879028826111 9.946997206287348 19.351462942563757 -3 1 0
918 92 6 0.404798 14.473761538469278 4.5416406069882775 23.047474000170688 -1 1 -1
1497 150 5 0.404798 15.533724268756407 2.0924190895149395 17.00648942736414 -1 0 -1
1300 130 10 -0.358962 15.023423958524265 5.655368003920401 16.1187234997383 1 -1 -1
450 45 10 -0.358962 0.6452311804671079 10.386930714707539 18.38066328036536 0 0 1
84 9 4 0.404798 7.440639415601076 9.751763678429858 17.343456805245772 1 -1 1
722 73 3 0.404798 11.404787036704299 5.705791660694547 16.00182891063306 0 0 2
920 92 10 -0.358962 14.959280489467456 5.557785132288129 23.325541712526046 -1 1 -1
19 2 9 -0.358962 13.479263357356768 0.21670395642244797 25.77238598481379 1 1 -1
813 82 7 -0.358962 7.252717731691754 5.205995110336413 30.284957021841315 2 2 0
1247 125 5 0.404798 1.8855822321500764 3.4975857180618757 27.676327749578856 1 2 1
818 82 6 0.404798 7.60446271726907 3.8900906571316916 27.060365522361874 2 2 0
820 82 10 -0.358962 6.88273260526598 2.9819843353104196 27.067334482216634 2 2 0
1246 125 2 -0.091672 1.2854735416124683 2.3239359811943583 27.059305204587538 1 2 1
1244 125 4 0.404798 1.9533429043197168 0.5876451786934113 28.718708687316262 1 2 1
962 97 3 0.404798 3.059001973216322 9.782169310152552 29.581346514487745 0 1 -1
1413 142 7 -0.358962 15.512549727971232 3.4145501924735133 28.799600094081374 0 1 0
961 97 1 -0.091672 2.2440074630372884 8.790559269021509 30.185469011504463 0 1 -1
1407 141 5 0.404798 5.189832725036545 2.399735840745138 30.045237231141922 0 0 0
1409 141 9 -0.358962 4.387637583122242 2.5019497060880895 29.21359110428128 0 0 0
1408 141 6 0.404798 7.114475601729604 1.1028797510964685 30.75853780133669 0 0 0
5 1 8 -0.358962 5.449282395269361 6.281752564114324 26.090842226688103 2 1 -1
7 1 5 0.404798 2.1385289640156246 7.146116116528603 25.39839715444768 2 1 -1
4 1 4 0.404798 4.961807453086253 7.061263285393387 25.38350127789654 2 1 -1
1248 125 6 0.404798 0.5725576295619141 2.699894862113224 25.8581523797878 1 2 1
1249 125 9 -0.358962 2.3398752882823004 4.431225775585337 28.193564702742425 1 2 1
1241 125 1 -0.091672 1.3374093149572686 1.0529959268155775 27.480748028487724 1 2 1
1 1 1 -0.091672 4.270955419858337 7.947266790526609 24.541529914446375 2 1 -1
9 1 9 -0.358962 1.4604254822047196 6.5266952045041835 26.10698265504038 2 1 -1
1245 125 8 -0.358962 2.4425732540108753 0.17011628667299789 29.684070427450994 1 2 1
611 62 1 -0.091672 13.15239706241904 10.267467592422785 28.13233305512016 1 0 1
819 82 9 -0.358962 9.96352016474874 5.271654223323313 24.927847326007512 2 2 0
968 97 6 0.404798 3.7221975076311793 6.926129298546242 29.622919580636655 0 1 -1
1280 128 10 -0.358962 7.751799708292726 8.698888297386409 26.228082054481533 0 -2 0
742 75 3 0.404798 3.6136522374249846 3.87030304607222 23.90506218216468 1 2 0
966 97 2 -0.091672 2.537044272024131 7.482997900728595 30.181905508259597 0 1 -1
743 75 7 -0.358962 3.958425498104096 3.743206845074036 25.00532485761794 1 2 0
6 1 2 -0.091672 2.933291861518196 8.009111485117502 24.590839629166062 2 1 -1
1479 148 9 -0.358962 6.043314428806789 1.1422130977124847 24.54207016308505 1 0 -1
1406 141 2 -0.091672 6.122922855495792 2.121399942958844 31.117245592763076 0 0 0
247 25 5 0.404798 7.856463182135065 8.754211266370016 30.49972788678752 0 -1 -1
985 99 8 -0.358962 3.0123466133508545 0.35719872184932155 24.18567439503192 2 1 -1
249 25 9 -0.358962 8.57560018942408 8.988632375867153 29.62024581682601 0 -1 -1
970 97 10 -0.358962 4.811076655045754 6.645731982260322 29.337753755481796 0 1 -1
812 82 3 0.404798 7.955967662311472 5.49003238358465 29.407254131985244 2 2 0
1415 142 8 -0.358962 13.961152252325865 7.074418283510677 27.012370057874573 0 1 0
964 97 4 0.404798 1.0045251644470545 9.262232211207758 30.62548911487136 0 1 -1
811 82 1 -0.091672 8.6744644970351 5.799678327437524 28.18338937243763 2 2 0
816 82 2 -0.091672 8.55957483688923 5.018353204188293 27.10083155957083 2 2 0
1278 128 6 0.404798 8.217275441413744 9.392054685926606 25.422816445973226 0 -2 0
1250 125 10 -0.358962 0.14742483517677804 2.882149976599601 24.79436425110969 1 2 1
1477 148 5 0.404798 7.047706085056825 0.7009556540550713 24.919017479080146 1 0 -1
1478 148 6 0.404798 9.11286219497372 0.6983349224288918 26.110833269863367 1 0 -1
1273 128 7 -0.358962 11.384096427785266 7.825573601169594 24.33941996423989 0 -2 0
817 82 5 0.404798 9.31886356012542 5.13720463008921 25.882803434690537 2 2 0
219 22 9 -0.358962 13.3057349456951 1.0534999727399625 29.110923201408507 1 1 -1
913 92 7 -0.358962 12.694069580229613 3.7622347285687456 25.947052694978115 -1 1 -1
815 82 8 -0.358962 10.650556517219975 7.406806898485046 28.090774656544237 2 2 0
1480 148 10 -0.358962 9.860500653903127 1.1068458567200103 26.898078817387837 1 0 -1
912 92 3 0.404798 12.789910085635757 3.221074567740068 24.92550471292121 -1 1 -1
528 53 6 0.404798 12.265274307976673 4.331935495578156 29.689541467163284 1 1 1
1272 128 3 0.404798 10.644345877264104 8.702229577619287 24.166667440982852 0 -2 0
612 62 3 0.404798 14.496170774518284 9.784695319575444 28.509676448775256 1 0 1
527 53 5 0.404798 14.11720927102691 5.769166174024336 30.41196422912469 1 1 1
1099 110 9 -0.358962 4.791786082525974 10.290005699169042 26.28775352355614 1 1 0
529 53 9 -0.358962 15.08734012593766 6.334031982712791 30.119778074885147 1 1 1
530 53 10 -0.358962 11.600891022434634 3.7773425275988344 28.917128695361583 1 1 1
814 82 4 0.404798 9.705009858098244 6.739864119940252 28.172804219753758 2 2 0
526 53 2 -0.091672 12.95832317727857 5.0091372778646415 30.785821973884712 1 1 1
620 62 10 -0.358962 11.833395172433272 9.289818900743066 31.27144665410696 1 0 1
911 92 1 -0.091672 13.029065562921545 2.7085979019718396 23.59714401252313 -1 1 -1
1271 128 1 -0.091672 9.77890736134479 9.803210035212931 23.72009447991886 0 -2 0
618 62 6 0.404798 11.955010627937494 9.687137348215554 30.18841953750481 1 0 1
967 97 5 0.404798 1.7054590845997288 6.51618395598865 30.699838198320926 0 1 -1
613 62 7 -0.358962 15.569532382649815 9.371493551409264 28.660537844888534 1 0 1
1276 128 2 -0.091672 8.678460230484188 10.187860831102471 24.380896930057986 0 -2 0
1414 142 4 0.404798 14.792574413098281 6.265679836178021 26.99565728621522 0 1 0
575 58 8 -0.358962 8.520396584628323 2.821068053017018 23.688959641595474 -1 1 -1
17 2 5 0.404798 14.59780706661952 0.18194738688955714 26.07775781706116 1 1 -1
616 62 2 -0.091672 12.012701014754992 10.189092948838576 28.832726043377253 1 0 1
217 22 5 0.404798 12.406577184821396 0.49993741943046555 29.59121876017454 1 1 -1
1476 148 2 -0.091672 8.292172981382473 0.09283944507951025 25.22866127860852 1 0 -1
965 97 8 -0.358962 0.011659838494917807 9.762880501332797 30.955897550717903 0 1 -1
1410 141 10 -0.358962 7.865512327698479 0.267154457104065 30.470254829836982 0 0 0
1412 142 3 0.404798 15.64220045214691 4.182986512772491 27.940358386893895 0 1 0
969 97 9 -0.358962 0.9583619209083041 5.8258540080248835 31.257413659031368 0 1 -1
2 1 3 0.404798 4.917006309885143 8.642168405396434 23.51295405791568 2 1 -1
8 1 6 0.404798 2.2784163895558676 8.73356790516467 23.569937410461403 2 1 -1
1204 121 4 0.404798 7.040507995058866 14.983056230936732 2.689287183576115 1 0 1
1201 121 1 -0.091672 6.878624490195901 14.613635553507901 4.04603808092069 1 0 1
1202 121 3 0.404798 7.333761984958827 13.402369161468226 4.599055829143017 1 0 1
1205 121 8 -0.358962 7.242881011591477 15.235893298409382 1.5754117048187688 1 0 1
1582 159 3 0.404798 5.138361991851614 12.77210782799383 0.8138456575977957 1 0 1
1601 161 1 -0.091672 6.936891630904941 18.878795320698885 5.90330292590415 0 1 -1
569 57 9 -0.358962 2.6253703043789955 18.44293345741356 4.740509155061413 1 -1 1
567 57 5 0.404798 1.7196289557422595 17.950440494022452 4.2088294657790675 1 -1 1
391 40 1 -0.091672 2.587654610729169 10.464089083406897 3.9863207808032617 0 -2 0
564 57 4 0.404798 1.7460896915067972 15.20005525189233 3.0478412250549134 1 -1 1
1583 159 7 -0.358962 4.871987693025338 12.616806568466805 1.9321149705676754 1 0 1
565 57 8 -0.358962 2.609280108556278 14.425651936537665 3.076157507233631 1 -1 1
1206 121 2 -0.091672 6.102941709498819 15.424693841925125 4.778227045551205 1 0 1
1209 121 9 -0.358962 5.23124357020825 17.63504280645191 3.703525435969759 1 0 1
1207 121 5 0.404798 5.514439140723326 16.636525985949326 4.221564460696352 1 0 1
1203 121 7 -0.358962 7.748073714804128 12.370558015413872 4.92967880734093 1 0 1
393 40 7 -0.358962 3.675096699116549 11.923708517225691 5.811396819641315 0 -2 0
392 40 3 0.404798 3.1580227189385304 11.298004713282115 4.982705532413784 0 -2 0
297 30 5 0.404798 2.459808568874403 20.82471792977363 0.9741131322739938 -1 0 1
299 30 9 -0.358962 2.2782914130606455 19.982631297892812 0.19723371565963968 -1 0 1
313 32 7 -0.358962 6.265242673938119 20.410746780230674 1.438803041670174 1 3 -1
1208 121 6 0.404798 5.712271964083929 15.162124035379257 6.109851721860681 1 0 1
395 40 8 -0.358962 1.8295061123167673 11.57797666281868 1.7478223215844602 0 -2 0
312 32 3 0.404798 6.448629274639126 19.68528091848836 0.5524235282533853 1 3 -1
1014 102 4 0.404798 1.6109246725741113 14.217026276453526 6.995378764794399 -1 0 1
320 32 10 -0.358962 3.9543421184469834 17.2791440777122 0.9739703244984786 1 3 -1
566 57 2 -0.091672 0.7093675339199749 17.335010429352316 3.5206323893138136 1 -1 1
1606 161 2 -0.091672 6.974019236346142 20.00669569307602 5.180764143786863 0 1 -1
1359 136 9 -0.358962 9.054257503745797 17.618759076445638 2.228268373603153 0 0 1
1210 121 10 -0.358962 5.449516864565624 15.015023495901566 7.230084371467453 1 0 1
485 49 8 -0.358962 14.38949394517852 17.98365479382445 2.3800474372649347 -2 -1 0
756 76 2 -0.091672 10.876241693558189 10.946966995202255 5.139413892253392 0 0 0
830 83 10 -0.358962 11.171826949927091 19.02736362044349 0.6415501721717309 1 0 -1
1607 161 5 0.404798 8.072776177320964 20.364792254659033 4.258758198415404 0 1 -1
1602 161 3 0.404798 5.885431787765336 18.514419721234525 6.744283087875613 0 1 -1
484 49 4 0.404798 15.373644333558374 17.887268191148337 1.7736171912177305 -2 -1 0
1590 159 10 -0.358962 8.479331643537368 12.029296259386792 0.9404700011830478 1 0 1
318 32 6 0.404798 4.855376518167458 17.43004800680455 0.25915215346429166 1 3 -1
1604 161 4 0.404798 8.067680925661312 17.99510705642714 5.7680274863590295 0 1 -1
1605 161 8 -0.358962 9.000729991793317 17.309627412140905 5.696353918355395 0 1 -1
760 76 10 -0.358962 10.497776043932523 12.875910575810979 3.423854437867505 0 0 0
1268 127 6 0.404798 14.881203402397375 16.33037008858493 5.761794173501404 0 -1 -1
1609 161 9 -0.358962 9.0354062005379 20.682860287502937 3.6950418096474973 0 1 -1
758 76 6 0.404798 10.712246677442666 12.024377504347852 4.181808114399991 0 0 0
667 67 5 0.404798 14.779704396124812 10.680662763034219 2.784730992311336 0 0 -2
1603 161 7 -0.358962 4.957420325723434 18.23615717081526 7.382220922953383 0 1 -1
1360 136 10 -0.358962 12.381785180008132 17.74464495470016 5.119757306127941 0 0 1
1354 136 4 0.404798 11.068387335442326 15.237556123300957 1.1927734407742347 0 0 1
759 76 9 -0.358962 12.392487111942053 11.5233013984483 7.153356038440511 0 0 0
1358 136 6 0.404798 11.934782373544538 17.287937683238496 4.151662806402489 0 0 1
1357 136 5 0.404798 10.03235241036049 17.23190472356061 2.7174248566489747 0 0 1
1356 136 2 -0.091672 11.304976030368936 16.701791190719245 3.062067683231248 0 0 1
1352 136 3 0.404798 13.166683306136395 15.351057538206293 2.4026074900768766 0 0 1
1270 127 10 -0.358962 14.230278507843403 15.370636121601358 5.733377664636309 0 -1 -1
1009 101 9 -0.358962 9.61656492269054 13.66639650668459 7.284298629120129 1 0 1
1015 102 8 -0.358962 1.601318653838733 14.038822692943446 5.849188899000122 -1 0 1
1351 136 1 -0.091672 11.861820342520392 15.793710006886176 2.2491021391770007 0 0 1
1353 136 7 -0.358962 14.267734296158652 15.044365501642265 2.6006648421501923 0 0 1
1261 127 1 -0.091672 15.476320471885291 18.47235279437006 6.804536845187574 0 -1 -1
757 76 5 0.404798 11.733011907720623 11.20862113785515 6.2524294096423185 0 0 0
394 40 4 0.404798 2.1657837729200105 11.102762699299666 2.7511612593748533 0 -2 0
561 57 1 -0.091672 0.7166774327300715 16.09896265864892 3.0032036734404604 1 -1 1
1262 127 3 0.404798 14.306013300885843 18.50238235784702 7.545106329381138 0 -1 -1
1355 136 8 -0.358962 10.332100928167602 14.737339189642302 0.44895535356584104 0 0 1
1588 159 6 0.404798 7.776089475994904 12.262227135869779 0.047837005061666105 1 0 1
1020 102 10 -0.358962 2.637284907031613 14.380276901641233 11.789696944650508 -1 0 1
1016 102 2 -0.091672 1.962091215025521 13.646076191927824 9.369785657523293 -1 0 1
1011 102 1 -0.091672 1.8397885300782693 14.573859637975659 8.410692370934797 -1 0 1
1018 102 6 0.404798 2.36832238015641 14.01896531183726 10.7207193510042 -1 0 1
1048 105 6 0.404798 3.954865448634522 14.850660029764605 14.95643403141718 -1 1 0
1046 105 2 -0.091672 4.516501027954793 13.544946809928518 14.876569060623686 -1 1 0
1041 105 1 -0.091672 5.416647026606598 13.175501114261065 13.955240096624506 -1 1 0
1308 131 6 0.404798 6.036112736733921 12.064432726780352 9.10206356389271 -1 0 0
1042 105 3 0.404798 5.917531485816656 14.08450613320489 12.99675881081997 -1 1 0
1043 105 7 -0.358962 6.247864889333931 14.762671089229977 12.11552550660729 -1 1 0
1045 105 8 -0.358962 5.957465265208663 10.62088843655153 13.686586717921307 -1 1 0
1044 105 4 0.404798 5.680877748701769 11.738327998116748 13.829513876278487 -1 1 0
126 13 2 -0.091672 1.3880850329900833 19.229619257754443 14.765858446944835 0 -1 -1
122 13 3 0.404798 1.0634421332057042 17.603736012105273 13.048378183855984 0 -1 -1
1017 102 5 0.404798 1.580325004616894 12.301192777981317 9.169799652149889 -1 0 1
121 13 1 -0.091672 1.702710208404295 18.763798787007428 13.549461188879468 0 -1 -1
180 18 10 -0.358962 4.609004277986721 16.802848941564015 11.351084649548884 -1 0 1
178 18 6 0.404798 5.393575532801968 17.609919289514526 11.63159382875103 -1 0 1
1306 131 2 -0.091672 7.453848997174051 11.85118079077939 9.343312275541843 -1 0 0
177 18 5 0.404798 6.756950267322099 19.50996642032884 11.021514213628105 -1 0 1