LAMMPS data file via write_data, version 29 Sep 2021, timestep = 1000000

1620 atoms
10 atom types
1458 bonds
9 bond types
1620 angles
10 angle types
1944 dihedrals
12 dihedral types

0 31.303 xlo xhi
0 31.303 ylo yhi
0 31.303 zlo zhi

Masses

1 12.01
2 12.01
3 12.01
4 12.01
5 12.01
6 12.01
7 14.01
8 14.01
9 14.01
10 14.01

Bond Coeffs # harmonic

1 400 1.426
2 400 1.426
3 400 1.426
4 400 1.426
5 549 1.34
6 650 1.16
7 650 1.16
8 650 1.16
9 650 1.16

Angle Coeffs # harmonic

1 70 116.8
2 70 116.8
3 70 121.6
4 70 121.6
5 70 121.6
6 70 121.6
7 70 178.9
8 70 178.9
9 70 178.9
10 70 178.9

Dihedral Coeffs # opls

1 0 0 0 0
2 0 0 0 0
3 0 0 0 0
4 0 0 0 0
5 0 0 0 0
6 0 0 0 0
7 0 0 0 0
8 0 0 0 0
9 0 14 0 0
10 0 14 0 0
11 0 14 0 0
12 0 14 0 0

Atoms # full

1052 106 3 0.404798 5.489318720779763 5.064177709591053 2.3235126527374614 1 0 1
1053 106 7 -0.358962 6.583978538663946 5.2141617697082605 1.9888375306950279 1 0 1
1056 106 2 -0.091672 3.6176496849007123 4.399222314675088 3.782585486363727 1 0 1
1058 106 6 0.404798 4.481722427468256 3.5772156786741736 4.538859164159253 1 0 1
1051 106 1 -0.091672 4.099700101344647 5.028115260495385 2.7224227208118843 1 0 1
1060 106 10 -0.358962 5.184528191685531 2.8641748639811633 5.087569988590205 1 0 1
1057 106 5 0.404798 2.2310611409764443 4.34265807296405 4.137200891261204 1 0 1
1054 106 4 0.404798 3.311533572028665 5.985310976095359 2.0855541410932306 1 0 1
1059 106 9 -0.358962 1.1237301315317905 4.465476877384538 4.2564102010289915 1 0 1
558 56 6 0.404798 7.950838964740538 2.196227096672748 7.343089471357742 0 1 0
1130 113 10 -0.358962 3.9981218022219664 6.871980441043859 6.3827069797483045 1 0 1
1055 106 8 -0.358962 2.6401204575711774 6.794629246606712 1.5642480972379813 1 0 1
1338 134 6 0.404798 9.811425867731247 1.5015004784049804 3.44970294603138 0 1 0
1340 134 10 -0.358962 9.131893586933884 2.143197817589721 4.082354435757591 0 1 0
560 56 10 -0.358962 7.429952933441585 1.1671158929540304 7.393034157618267 0 1 0
1128 113 6 0.404798 4.711610880124406 7.643327181974822 6.936573237353139 1 0 1
440 44 10 -0.358962 0.33739167593310937 4.805836028079284 0.32201089061341037 0 0 1
30 3 10 -0.358962 0.4318439801307548 14.580753749929551 5.3975366453300735 0 0 0
735 74 8 -0.358962 8.896553578453908 5.771496482091598 4.3128243303941804 0 0 0
734 74 4 0.404798 9.37268988026186 6.117794033327776 3.300138906829858 0 0 0
1575 158 8 -0.358962 0.9453992594181516 7.841587785630393 4.540618292163862 0 0 0
1574 158 4 0.404798 0.49727917524415144 8.290395370148701 5.518587861400439 0 0 0
79 8 9 -0.358962 1.7861578949906538 2.2031594318286682 1.311059326471278 1 1 0
25 3 8 -0.358962 4.846921433693292 12.063424054302109 2.5371928204636776 0 0 0
40 4 10 -0.358962 2.31545997954786 2.179655908728208 7.052941258950548 1 0 1
77 8 5 0.404798 0.8529839723323734 1.6393842902048232 1.0599244050126655 1 1 0
556 56 2 -0.091672 8.57179498302921 3.4123588204738375 7.1052416622932135 0 1 0
29 3 9 -0.358962 3.0208691584439173 11.251719110788121 5.853461419089439 0 0 0
28 3 6 0.404798 1.2558605110971424 14.017657942323721 4.864166888942531 0 0 0
379 38 9 -0.358962 5.418180333682068 8.170981936518672 3.6428562962463618 0 1 0
736 74 2 -0.091672 9.93675028772966 7.669405756629646 1.5442055592036836 0 0 0
1332 134 3 0.404798 9.204387368542893 1.169734930123528 0.7554166336779082 0 1 0
1543 155 7 -0.358962 6.063288737153464 14.390354588129243 0.4866659112590102 0 0 0
731 74 1 -0.091672 10.058884260424206 6.440494193212834 2.0370305819603858 0 0 0
1333 134 7 -0.358962 8.178261481452594 1.5960094825817521 0.3678394522799467 0 1 0
1126 113 2 -0.091672 5.535752789185578 8.518008732007022 7.669205127434169 1 0 1
725 73 8 -0.358962 0.4986736497343129 1.4221164527715267 4.354314329315544 1 0 1
1183 119 7 -0.358962 5.545371720577117 0.35172212916721496 3.354675335921646 0 1 0
151 16 1 -0.091672 10.418547030977315 10.897707408467685 6.949826538081185 0 0 0
502 51 3 0.404798 7.476126978687736 15.415567500999368 3.016239968100827 1 0 1
707 71 5 0.404798 4.807154243688788 14.459527393983812 7.792730505568778 1 0 0
371 38 1 -0.091672 4.17379912763393 9.55269826256713 0.6272522065408039 0 1 0
503 51 7 -0.358962 6.516376935305548 15.574760396078936 3.606661861287447 1 0 1
21 3 1 -0.091672 3.1110471746139368 13.71427709979993 3.3359946792127557 0 0 0
374 38 4 0.404798 2.9276249300933856 9.822115925997856 1.2180915097177747 0 1 0
24 3 4 0.404798 4.03897143703542 12.796660443729566 2.895365683705646 0 0 0
557 56 5 0.404798 7.845988893725509 4.628989915014566 7.336742844328789 0 1 0
377 38 5 0.404798 5.302385130442476 8.527575736172404 2.561482901000853 0 1 0
501 51 1 -0.091672 8.664984354305034 15.06111707642522 2.4379398688599037 1 0 1
1127 113 5 0.404798 6.224554780125155 9.55644108471091 6.976352654322713 1 0 1
376 38 2 -0.091672 5.275377329662309 8.985627856679024 1.2084740246942618 0 1 0
375 38 8 -0.358962 1.9237853419736832 10.033625813619997 1.6850070470581626 0 1 0
22 3 3 0.404798 2.9296869093764455 14.94599265668303 2.608034969659607 0 0 0
1129 113 9 -0.358962 6.780723814165603 10.46578023218918 6.504354391666575 1 0 1
737 74 5 0.404798 9.464805706178606 8.693633067822484 2.462051036785689 0 0 0
378 38 6 0.404798 6.443057920804501 8.680203702321803 0.43480710388793586 0 1 0
506 51 2 -0.091672 9.363535459674384 14.016667143711718 2.9917869805961064 1 0 1
709 71 9 -0.358962 4.839662812142964 14.305781083941932 6.664387245878945 1 0 0
551 56 1 -0.091672 9.857443945790136 3.4075407677720078 6.918860281948537 0 1 0
26 3 2 -0.091672 2.3099163518904833 13.22927755122417 4.334764310759579 0 0 0
27 3 5 0.404798 2.6934901651264744 12.129154789711432 5.191021821472654 0 0 0
1550 155 10 -0.358962 8.894195535717028 11.480392444741423 0.5589432766555497 0 0 0
508 51 6 0.404798 8.761126368109867 13.220043182858106 3.9834605487707107 1 0 1
152 16 3 0.404798 9.493067841697995 11.583239249067992 7.818983438210601 0 0 0
510 51 10 -0.358962 8.189011284969418 12.560779342160153 4.754911025916665 1 0 1
739 74 9 -0.358962 9.11802197294133 9.485542239138159 3.187570023365782 0 0 0
559 56 9 -0.358962 7.253836401709396 5.590731346449356 7.57297242788513 0 1 0
158 16 6 0.404798 9.892286405475044 8.603945186039931 7.7877598113125135 0 0 0
1346 135 2 -0.091672 5.71365426768933 5.442582751923451 14.621330140149869 0 0 0
35 4 8 -0.358962 2.791803657818685 3.855150071516552 12.765991676258261 1 0 1
34 4 4 0.404798 2.4993313334141734 3.5656672678249137 11.655333469360386 1 0 1
1348 135 6 0.404798 6.503512272618651 4.580533142861122 13.748197246666354 0 0 0
1350 135 10 -0.358962 7.1166562679478975 3.9188029015976924 13.051022494735237 0 0 0
31 4 1 -0.091672 2.0698305667477372 3.1814793779407466 10.327316919259054 1 0 1
39 4 9 -0.358962 5.512491448935162 2.824607781664864 10.010864027644898 1 0 1
37 4 5 0.404798 4.448287818745718 2.9660107600552985 9.614317381573974 1 0 1
36 4 2 -0.091672 3.031593775523307 2.9620306319717025 9.393782620778543 1 0 1
1347 135 5 0.404798 5.042928342969138 6.532352897048691 13.95899494512934 0 0 0
301 31 1 -0.091672 8.872393443061673 1.145367678630215 12.295146827630576 0 1 0
306 31 2 -0.091672 9.309286830077532 1.5498176090137668 13.486414203340782 0 1 0
304 31 4 0.404798 9.277015426085807 1.786316786983728 11.092071749911018 0 1 0
192 20 3 0.404798 4.075250738481391 0.8805334169059446 14.317461454873905 0 1 0
1122 113 3 0.404798 5.2796814385373025 7.037875116727331 9.537928590487834 1 0 1
1123 113 7 -0.358962 4.930393442428374 6.008035082009168 9.947332257584149 1 0 1
597 60 5 0.404798 0.18540918963893574 9.237913233240677 14.215456692468312 0 -1 1
1121 113 1 -0.091672 5.843061153169829 8.210572143711095 8.97381451054813 1 0 1
197 20 5 0.404798 0.5596610612403695 0.28697739601096145 15.596109331445312 0 1 0
308 31 6 0.404798 8.919178830730946 0.824905834467951 14.692580335514084 0 1 0
32 4 3 0.404798 0.6422626031308544 3.280342281861087 10.042659490625123 1 0 1
218 22 6 0.404798 9.155610100740825 13.716313653016893 13.974631137989885 0 0 0
1576 158 2 -0.091672 0.2388093281463053 8.296393230906018 7.9478932472210575 0 0 0
196 20 2 -0.091672 1.8711799599988952 0.7861084962670973 15.3678525904657 0 1 0
1124 113 4 0.404798 6.678694080205444 8.978760031212255 9.81997200423209 1 0 1
353 36 7 -0.358962 1.391690701010985 6.419683563925089 15.394690628730435 0 0 0
193 20 7 -0.358962 5.123995012598226 1.372818651855073 14.209447636422444 0 1 0
302 31 3 0.404798 7.846019424407986 0.15674120728859178 12.27639670726416 0 1 0
191 20 1 -0.091672 2.7135807454328433 0.41126051892491905 14.385325612413164 0 1 0
1210 121 10 -0.358962 0.18357646120738536 0.9488468217489705 11.851362125235124 1 0 1
115 12 8 -0.358962 8.062377027551742 7.668027517827754 15.189680528098874 0 0 0
1579 158 9 -0.358962 1.5723105373254462 6.102240284003269 8.157706373264707 0 0 0
591 60 1 -0.091672 1.9426393263077824 9.334993784652028 12.64780906198522 0 -1 1
1349 135 9 -0.358962 4.5924529435465 7.32031231211572 13.30532305408717 0 0 0
594 60 4 0.404798 2.2370629055073232 10.55769229138716 13.185920840542558 0 -1 1
211 22 1 -0.091672 7.577274963679012 15.347971059357063 14.843174520711077 0 0 0
596 60 2 -0.091672 0.7883564323356743 8.759685779355015 13.03175422816687 0 -1 1
117 12 5 0.404798 8.753177787655043 10.368998058453302 12.949911084212637 0 0 0
704 71 4 0.404798 4.205611873536577 12.433189511224057 9.482441839601996 1 0 0
160 16 10 -0.358962 9.592616705002943 7.9217575556704585 8.655672081733824 0 0 0
840 84 10 -0.358962 8.318417987239833 14.912766627197199 11.06262174258587 0 0 0
1577 158 5 0.404798 0.9604872373142326 7.0657755517587315 8.053523279771087 0 0 0
395 40 8 -0.358962 1.3249267129720217 13.647217102623062 8.41853579797541 1 -1 0
701 71 1 -0.091672 4.5498287766271135 13.70281659787913 10.002095284177782 1 0 0
114 12 4 0.404798 8.997264024368695 7.929815576629384 14.569998676125357 0 0 0
394 40 4 0.404798 0.6371048869185596 14.52267813125879 8.746461798424816 1 -1 0
216 22 2 -0.091672 7.978665364954005 14.061792004953515 14.772970651089512 0 0 0
1267 127 5 0.404798 0.03485217475274482 13.494360250065542 14.800717063570323 0 0 -1
116 12 2 -0.091672 9.90496812699608 9.409385780930503 12.887085769005385 0 0 0
1125 113 8 -0.358962 7.487825726046989 9.554885167560803 10.37015823047789 1 0 1
592 60 3 0.404798 2.594166726258695 9.012797864269022 11.391323945237788 0 -1 1
598 60 6 0.404798 0.23877282257994806 7.568287762202539 12.417293070611665 0 -1 1
595 60 8 -0.358962 2.537640833241829 11.540166974196328 13.650602251809671 0 -1 1
1261 127 1 -0.091672 1.7369324411884433 15.004927947187566 14.506549296642186 0 0 -1
119 12 9 -0.358962 7.787492545711789 11.015463055208786 13.053229439255599 0 0 0
111 12 1 -0.091672 9.962928332907222 8.297938770483674 13.620347065372703 0 0 0
706 71 2 -0.091672 4.810032768531474 14.717977508991932 9.163143488367764 1 0 0
38 4 6 0.404798 2.6809280958003106 2.5556943728038606 8.108011805939888 1 0 1
703 71 7 -0.358962 4.76473813726607 13.825645712214117 12.55382957297852 1 0 0
153 16 7 -0.358962 8.847778459452128 12.240812228667107 8.50999651869986 0 0 0
593 60 7 -0.358962 3.087192425959786 8.84349865648947 10.362872326854436 0 -1 1
1266 127 2 -0.091672 0.451617176486645 14.737895126896843 14.318752229596642 0 0 -1
220 22 10 -0.358962 10.060392154205555 13.48088928841439 13.338581582562753 0 0 0
705 71 8 -0.358962 3.9419804335170374 11.39744699778906 9.096201277727262 1 0 0
702 71 3 0.404798 4.565898477469712 13.782109125302597 11.407439811972246 1 0 0
217 22 5 0.404798 7.146998726297169 12.970277083751546 15.296654212692127 0 0 0
305 31 8 -0.358962 9.61564707322668 2.3887922962577455 10.094366302009599 0 1 0
600 60 10 -0.358962 0.01250624681075152 6.540566785674515 11.90375479969941 0 -1 1
1264 127 4 0.404798 2.5345731659077124 14.155716689757547 15.311603692697812 0 0 -1
966 97 2 -0.091672 4.150404043528096 6.698676723830251 22.025836139341664 0 1 0
967 97 5 0.404798 4.6471371473655445 5.356883766890971 22.05865843065884 0 1 0
665 67 8 -0.358962 1.7718394608437729 2.838140336968535 20.492579093784432 1 0 -1
360 36 10 -0.358962 1.6814445934241067 6.843086784103088 19.515539642075854 0 0 0
961 97 1 -0.091672 3.0423548410251735 7.129817680862417 22.63676934169118 0 1 0
684 69 4 0.404798 8.958690803228667 13.26316557705255 18.099190474202295 0 0 0
792 80 3 0.404798 8.565128900277976 0.5186206379324461 19.372940785213355 0 1 0
793 80 7 -0.358962 8.85253579834965 1.5646391022748298 19.816431888508582 0 1 0
1345 135 8 -0.358962 3.9868385537225275 6.6800346340953345 17.346900058780083 0 0 0
969 97 9 -0.358962 5.187808167161624 4.3025473025303 22.01123379144863 0 1 0
664 67 4 0.404798 2.5310594722717696 2.280277601525169 21.181237099775547 1 0 -1
1028 103 6 0.404798 8.465235772930797 5.483101568885683 18.966760533524873 0 1 0
1030 103 10 -0.358962 7.354835201613198 5.6013884518978125 18.827906095181227 0 1 0
661 67 1 -0.091672 3.5351632616609394 1.6361106280799504 22.009176627219738 1 0 -1
200 20 10 -0.358962 2.9611235724142504 2.375935909998685 17.148055976106363 0 1 0
1026 103 2 -0.091672 9.890367818845004 5.175502794654175 19.006074299826825 0 1 0
662 67 3 0.404798 4.4649225106176464 0.7557815835034196 21.330446064031367 1 0 -1
1022 103 3 0.404798 9.995208641665338 4.338608362314855 16.892082789863963 0 1 0
358 36 6 0.404798 0.685851698489591 6.568298772629204 18.900139791897068 0 0 0
963 97 7 -0.358962 2.0390690506089393 9.521537788182298 22.604642636869652 0 1 0
1344 135 4 0.404798 4.67350248989338 6.054186032427794 16.6647096329247 0 0 0
198 20 6 0.404798 2.4049865198456333 1.6501078234846123 16.34471878499496 0 1 0
1343 135 7 -0.358962 6.590080205600387 3.246734656374819 17.221289066528787 0 0 0
1342 135 3 0.404798 6.185974043576085 4.167850986172811 16.60538004496003 0 0 0
248 25 6 0.404798 5.41455432533704 14.905821357517766 19.436412793830844 1 0 0
246 25 2 -0.091672 5.011251797408104 15.604551154849425 20.631360107768025 1 0 0
242 25 3 0.404798 7.163504068210389 15.521491918825317 21.89131442257549 1 0 0
1265 127 8 -0.358962 3.197229590987845 13.582341908840048 16.071815692030505 0 0 -1
964 97 4 0.404798 2.3119609563131056 6.179297562305383 23.431413240391215 0 1 0
663 67 7 -0.358962 5.208357760047131 0.10837297037676728 20.69265920435193 1 0 -1
208 21 6 0.404798 5.6860576544057135 9.928541790788874 17.742567060471032 0 0 0
689 69 9 -0.358962 10.279059603732657 11.229666161773192 15.716382201958783 0 0 0
352 36 3 0.404798 0.4443127484788015 6.19213478832908 15.989146658859518 0 0 0
1023 103 7 -0.358962 9.627529487951385 4.3441862145117955 15.80501464543561 0 1 0
250 25 10 -0.358962 5.799293008113973 14.231525946245398 18.553875320315125 1 0 0
682 69 3 0.404798 8.898468970789487 12.080772083871787 20.30641565885287 0 0 0
207 21 5 0.404798 3.4512362732685817 9.992728883690425 16.962597665395833 0 0 0
688 69 6 0.404798 10.14381669575309 9.7888058760839 18.842361723393424 0 0 0
187 19 5 0.404798 1.243952558654762 13.46080922824416 21.96707531488129 1 0 -1
210 21 10 -0.358962 6.784375189710155 9.534380032710578 17.530120383882156 0 0 0
968 97 6 0.404798 4.920670301919832 7.53290285558731 21.11527546195739 0 1 0
962 97 3 0.404798 2.488122281825392 8.462680321377041 22.60118528295624 0 1 0
209 21 9 -0.358962 2.706096174277469 9.543578736809422 16.187597770116422 0 0 0
203 21 7 -0.358962 5.182867532189592 12.003816627783783 20.91817990355457 0 0 0
186 19 2 -0.091672 0.03618312511271526 13.579288869852004 22.708361031730345 1 0 -1
189 19 9 -0.358962 2.168268389175969 13.332390869129974 21.304129943432212 1 0 -1
685 69 8 -0.358962 8.85765624107232 14.27332658584731 17.56307179203463 0 0 0
201 21 1 -0.091672 3.9071898351632304 11.316172647018186 18.858326909631216 0 0 0
686 69 2 -0.091672 9.76827920821388 11.048360310936886 18.268793815221954 0 0 0
206 21 2 -0.091672 4.372423623002477 10.462321445695698 17.937955316676707 0 0 0
204 21 4 0.404798 2.6518350271254314 11.90444639975163 18.68363598475168 0 0 0
690 69 10 -0.358962 10.406390335201328 8.753254806623117 19.274377265819737 0 0 0
687 69 5 0.404798 10.095181355429176 11.113100752816841 16.874569308782608 0 0 0
683 69 7 -0.358962 8.34845336777189 12.118657633260323 21.32019878019879 0 0 0
202 21 3 0.404798 4.645492281409544 11.743225410929231 19.953194831222945 0 0 0
681 69 1 -0.091672 9.201890210347631 12.078932402129558 18.912680430307134 0 0 0
243 25 7 -0.358962 8.331164883872216 15.30795482710978 21.93482268200418 1 0 0
970 97 10 -0.358962 5.396766572235473 8.270821766782436 20.41491168899814 0 1 0
205 21 8 -0.358962 1.539202491354155 12.24073480932371 18.546142903333433 0 0 0
168 17 6 0.404798 0.33455451506406375 0.37691608568703766 19.323727281551395 0 0 -1
139 14 9 -0.358962 8.184599638894374 2.806191901425921 23.05180564508412 1 0 1
170 17 10 -0.358962 1.2315688945333647 0.12346179829754507 18.597065910663837 0 0 -1
666 67 2 -0.091672 3.470787118613095 1.647598725747814 23.302504656652804 1 0 -1
1341 135 1 -0.091672 5.511238547990204 5.202956585469263 15.872389094153622 0 0 0
219 22 9 -0.358962 6.4517747097093165 12.143041846415887 15.753485026995303 0 0 0
310 31 10 -0.358962 8.582801843963342 0.390365526054972 15.732366947588574 0 1 0
386 39 2 -0.091672 7.564289555971618 5.0801613488495185 27.867304988123728 1 0 0
383 39 7 -0.358962 5.410556029344835 5.753782896844217 25.166369172518035 1 0 0
234 24 4 0.404798 2.7067391210405365 5.705699375094855 27.847314069732313 0 0 0
231 24 1 -0.091672 1.3350184243446237 5.649684072448358 27.41437849449379 0 0 0
382 39 3 0.404798 5.9725273127563225 5.8729747858040575 26.17632634825909 1 0 0
1445 145 8 -0.358962 4.077729555215944 2.8089107848803216 27.354825061952422 1 1 0
1444 145 4 0.404798 4.455682615360436 1.907242944032358 27.953294397465555 1 1 0
387 39 5 0.404798 8.062995831587939 5.267061179372877 29.19318097451529 1 0 0
381 39 1 -0.091672 6.825009917949301 6.057655076952587 27.2977911986126 1 0 0
390 39 10 -0.358962 7.538584607663634 2.634470854495339 26.816626267999617 1 0 0
388 39 6 0.404798 7.548557705831414 3.7785115818110864 27.277013417012398 1 0 0
667 67 5 0.404798 2.367778176721505 2.1843651629944647 24.025867021887798 1 0 -1
134 14 4 0.404798 9.735169380941466 0.6649708136618727 25.159178079271808 1 0 1
235 24 8 -0.358962 3.813950452136518 5.7323407155501505 28.168233674136403 0 0 0
389 39 9 -0.358962 8.3709444091128 5.369701718107855 30.36324095395106 1 0 0
1446 145 2 -0.091672 5.188682342807023 1.1396420930430549 30.05620809106216 1 1 0
252 26 3 0.404798 8.540215165127062 15.151312919284793 25.817183979537855 0 0 0
1441 145 1 -0.091672 4.842812443504906 0.8078265953208469 28.757388039644987 1 1 0
232 24 3 0.404798 0.7691543359777433 6.74650010422591 26.71437560067828 0 0 0
1448 145 6 0.404798 5.660768114814941 0.14638784990567308 31.006961411179873 1 1 0
233 24 7 -0.358962 0.24537918640282566 7.611851095737772 26.15501783416831 0 0 0
668 67 6 0.404798 4.40355736370243 1.0941017961712536 24.193599613242114 1 0 -1
1548 155 6 0.404798 8.284335878019899 11.747013168010108 30.85702321150179 0 0 -1
239 24 9 -0.358962 1.040191467915631 2.412136633845884 28.899799712465914 0 0 0
15 2 8 -0.358962 10.120914649367373 6.605783441263445 26.936567740493427 0 0 -1
136 14 2 -0.091672 10.316174030566396 2.9187255877007137 24.444643954297344 1 0 1
237 24 5 0.404798 0.8770483054354604 3.409691184145716 28.308978075180743 0 0 0
669 67 9 -0.358962 1.5388847226148366 2.6572690355276847 24.79713757274692 1 0 -1
670 67 10 -0.358962 5.21311724858691 0.6303547444222338 24.87344449165096 1 0 -1
1551 156 1 -0.091672 5.487732492508341 10.870148721764714 24.586986827434973 0 0 0
384 39 4 0.404798 6.528280621323094 7.291307301426757 27.910026817925083 1 0 0
184 19 4 0.404798 0.9020624945855583 15.352024515270216 23.969688414730808 1 0 -1
236 24 2 -0.091672 0.5052738183479467 4.56800913561635 27.589564189526357 0 0 0
965 97 8 -0.358962 1.6792083437295775 5.464570599171642 24.104367493149635 0 1 0
1473 148 7 -0.358962 1.324758638591454 14.377528678588668 27.32240112891962 1 0 -1
1474 148 4 0.404798 2.061016046968188 13.44584095548674 30.569586717487436 1 0 -1
749 75 9 -0.358962 1.7490103077166113 11.146787417254115 28.122548495578084 1 1 0
1542 155 3 0.404798 6.254099445147666 13.824562397974333 30.812625258542194 0 0 -1
1541 155 1 -0.091672 6.530200039375466 13.002029520258626 29.690518763936012 0 0 -1
1447 145 5 0.404798 4.995733409814005 2.437174835350577 30.556668291355997 1 1 0
1449 145 9 -0.358962 4.705340131091822 3.4787625355173866 30.976773682927714 1 1 0
372 38 3 0.404798 4.238139120241779 10.042675864645412 30.59448251487591 0 1 -1
1547 155 5 0.404798 7.94579799123398 11.341057042763525 28.551856906072384 0 0 -1
1471 148 1 -0.091672 1.029480014877254 14.102229728026655 29.874101262790507 1 0 -1
1555 156 8 -0.358962 6.34280335504676 13.230597190662357 23.833714976323957 0 0 0
433 44 7 -0.358962 0.5451429261652175 8.561290462759562 30.243678098878082 0 0 0
1545 155 8 -0.358962 5.088597048925206 13.2717524587636 27.59697091430819 0 0 -1
1553 156 7 -0.358962 7.284111920867137 9.039665057938072 24.841728761717548 0 0 0
17 2 5 0.404798 9.452774203378308 7.071080193708161 23.68233510370079 0 0 -1
1554 156 4 0.404798 5.91843296247894 12.15854544325542 24.16146189452932 0 0 0
1560 156 10 -0.358962 3.3190739950258124 8.37362069724232 25.718391279249804 0 0 0
373 38 7 -0.358962 4.3452507478021225 10.475722483639137 29.548566358341198 0 1 -1
747 75 5 0.404798 0.7141631943312742 11.070273356875514 27.59903044183726 1 1 0
1472 148 3 0.404798 1.2103471783147601 14.279279808338979 28.461457756582057 1 0 -1
16 2 2 -0.091672 10.340839155185959 8.160299119635557 23.968996654216127 0 0 -1
255 26 8 -0.358962 9.413777129038914 12.064259262500395 24.903543362564612 0 0 0
1552 156 3 0.404798 6.499303362681211 9.926854578007516 24.708520735532055 0 0 0
254 26 4 0.404798 9.503451036662021 13.19247257606001 25.079141698826533 0 0 0
1556 156 2 -0.091672 4.250284237643213 10.659477708711872 24.90547828830801 0 0 0
1559 156 9 -0.358962 2.3331409777096637 12.453922078174864 25.014341488960053 0 0 0
1475 148 8 -0.358962 2.859284306975823 12.919623126170235 31.196256238355843 1 0 -1
251 26 1 -0.091672 9.63482490860875 14.518458882533249 25.140548588418024 0 0 0
1546 155 2 -0.091672 7.481017196370327 12.028369690754447 29.72655353217925 0 0 -1
1557 156 5 0.404798 3.2049818878227145 11.64152239804129 24.944811940756935 0 0 0
1549 155 9 -0.358962 8.42790313751388 10.851581295666302 27.61395523030698 0 0 -1
1558 156 6 0.404798 3.769323249287673 9.408778117636475 25.34185940174645 0 0 0
385 39 8 -0.358962 6.135674579463702 8.289345697011349 28.347561807616817 1 0 0
1544 155 4 0.404798 5.696320212229592 13.244406497334314 28.585331215359943 0 0 -1
380 38 10 -0.358962 7.421102010584384 8.495578436748406 31.180903933672187 0 1 -1
137 14 5 0.404798 9.102361782823104 2.882314618368517 23.68365810469816 1 0 1
1476 148 2 -0.091672 0.0607686331344901 14.700266612954268 30.582820653474283 1 0 -1
432 44 3 0.404798 0.008709402066273958 8.35899334013302 31.23401036668762 0 0 0
19 2 9 -0.358962 8.673415068719141 6.216312886638535 23.612476661455577 0 0 -1
46 5 2 -0.091672 6.18693264605115 18.97215997824722 6.176908513698417 0 0 1
42 5 3 0.404798 6.5632421534562155 18.99786416138092 3.7952703622284902 0 0 1
41 5 1 -0.091672 6.1318349490207735 19.579806063252093 4.9304232765087725 0 0 1
44 5 4 0.404798 5.647664980278382 20.83240421301854 4.820962483530075 0 0 1
48 5 6 0.404798 6.712316312249738 17.738439894729893 6.348372503229877 0 0 1
45 5 8 -0.358962 5.268190925213438 21.896088060969255 4.858747598726901 0 0 1
43 5 7 -0.358962 7.001864062431576 18.51945079147669 2.8602072465219748 0 0 1
1047 105 5 0.404798 9.536410316020271 21.820998504030435 2.2614657904255284 0 0 0
768 77 6 0.404798 8.580013125388133 22.126995512454645 6.625960361119228 0 -1 1
770 77 10 -0.358962 8.626901280725848 21.210009439886733 5.978533562039309 0 -1 1
84 9 4 0.404798 2.2749855063359807 19.54600220500349 2.5699890350463246 0 -1 0
1049 105 9 -0.358962 8.449918517006974 21.814903731504337 2.7075493622303726 0 0 0
920 92 10 -0.358962 4.161786820536981 21.916240386858775 1.9527226918747018 0 0 0
85 9 8 -0.358962 3.082223950334848 18.851985125833725 3.0158934219719473 0 -1 0
81 9 1 -0.091672 1.2138283740675813 20.35010678674617 1.9716659253124162 0 -1 0
87 9 5 0.404798 0.9725881820583538 18.82958714409148 0.21788757109194082 0 -1 0
1159 116 9 -0.358962 0.5123200311536699 21.699749783852337 6.426614527764578 1 0 0
918 92 6 0.404798 4.6131881252191915 22.910321649434135 1.474839201333687 0 0 0
504 51 4 0.404798 9.274337014411898 15.837803242061185 1.390333956555365 1 0 1
47 5 5 0.404798 5.505861333539783 19.74466334050937 7.204674199751611 0 0 1
914 92 4 0.404798 6.535197712239138 26.11900626517766 0.9722374918163925 0 0 0
50 5 10 -0.358962 7.225509826557611 16.693369964207257 6.453664571397937 0 0 1
1185 119 8 -0.358962 3.883868265979416 31.070144002338857 7.507911077111464 0 0 0
86 9 2 -0.091672 0.6037053409620187 20.042465541345308 0.8088257691737728 0 -1 0
1415 142 8 -0.358962 10.25888136903712 28.823487164774953 2.3219996348905814 0 0 1
916 92 2 -0.091672 5.139091821504055 24.073872099641136 0.837375662918294 0 0 0
766 77 2 -0.091672 8.541169702119582 23.36306132412263 7.351887458570998 0 -1 1
1157 116 5 0.404798 0.991485711147766 22.495136810728678 7.194078476009895 1 0 0
23 3 7 -0.358962 2.5717719152538105 15.898794832702345 1.9728761468244926 0 0 0
505 51 8 -0.358962 9.705225247280639 16.528239622496336 0.5619876625609083 1 0 1
443 45 7 -0.358962 9.026331839212906 29.072187167383188 5.500067381982042 0 -1 1
1450 145 10 -0.358962 5.960143466421339 30.581470874308998 0.40371717083723535 1 0 1
1414 142 4 0.404798 10.28405574892165 28.435785990475544 1.2694119813923306 0 0 1
1609 161 9 -0.358962 1.77285664793922 28.980862753902564 4.335092178253364 0 0 0
83 9 7 -0.358962 0.20323387305124357 22.401934831852067 3.2167974403229134 0 -1 0
763 77 7 -0.358962 9.145784105808811 24.823502134416753 4.140730702001079 0 -1 1
442 45 3 0.404798 9.862831187563234 29.09138603274783 6.3284264285518645 0 -1 1
762 77 3 0.404798 8.96215972494966 24.651403086035764 5.293078395606371 0 -1 1
1187 119 5 0.404798 4.732998710242705 27.74023757000771 6.164065500750162 0 0 0
82 9 3 0.404798 0.6792481599813311 21.45844832583892 2.6413284185968027 0 -1 0
1601 161 1 -0.091672 0.38651203501216147 26.422242371067895 2.458182313602651 0 0 0
1154 116 4 0.404798 2.1301491314838352 24.766900037259905 6.361651004818509 1 0 0
1155 116 8 -0.358962 2.1736628277476733 24.8844538589872 5.186389765080584 1 0 0
1184 119 4 0.404798 4.34455948815273 30.613884251978824 6.545956044501842 0 0 0
1151 116 1 -0.091672 2.145989612914452 24.52487882991277 7.716450417643139 1 0 0
913 92 7 -0.358962 6.044320386803769 24.582784906163376 3.9614116825584924 0 0 0
911 92 1 -0.091672 5.852772798018955 24.91739640035815 1.472867842693897 0 0 0
1181 119 1 -0.091672 4.849809569409239 30.061325530670615 5.315879262081038 0 0 0
1188 119 6 0.404798 5.886208456870266 28.27246603367729 4.14468734070514 0 0 0
1186 119 2 -0.091672 5.101940068526455 28.711622653265863 5.202632900784195 0 0 0
1189 119 9 -0.358962 4.333363094963358 27.017279979611313 6.963946165692915 0 0 0
1607 161 5 0.404798 0.9847900613484197 28.16728753756183 4.004878523587835 0 0 0
1605 161 8 -0.358962 2.8139604724864173 26.50096859561396 1.5099622693444874 0 0 0
761 77 1 -0.091672 8.673247596031912 24.54562021389569 6.6830125322666785 0 -1 1
764 77 4 0.404798 8.742088634931106 25.74601583468357 7.351907874893748 0 -1 1
1604 161 4 0.404798 1.7277152613962952 26.509703072546746 1.9283214565699018 0 0 0
912 92 3 0.404798 6.024455167038685 24.74815050440021 2.8047690929948703 0 0 0
1190 119 10 -0.358962 6.41298294413565 27.86581666171232 3.157252922273071 0 0 0
1606 161 2 -0.091672 0.042223909948559644 27.22197196640476 3.499803644282914 0 0 0
1182 119 3 0.404798 5.295300214997205 30.94480999778651 4.2402240516545 0 0 0
915 92 8 -0.358962 7.138087553087966 26.910056713630564 0.4432841474479924 0 0 0
575 58 8 -0.358962 9.913299589503906 19.435637161180182 0.1428717668785369 0 0 1
399 40 9 -0.358962 2.7981300757610517 16.98810224799063 7.7737355173501905 1 -1 0
1044 105 4 0.404798 9.912107835547845 23.389930312245117 0.12908535686199585 0 0 0
466 47 2 -0.091672 5.022585629905607 20.06841325201616 11.687795686684343 0 0 0
461 47 1 -0.091672 5.691838531288391 21.231374820091055 11.55220063069046 0 0 0
464 47 4 0.404798 6.879320037671271 21.46376890231303 12.305585134277027 0 0 0
467 47 5 0.404798 5.482279543651004 19.053587433343345 12.569321145071216 0 0 0
468 47 6 0.404798 3.8720065357755504 19.7575632439171 10.97398191718293 0 0 0
1009 101 9 -0.358962 2.3114359124614556 21.237581802761344 13.631158990510169 1 0 0
469 47 9 -0.358962 5.926095354681166 18.206544647716814 13.254195799459131 0 0 0
470 47 10 -0.358962 2.9705210580533974 19.47179259534031 10.348063071163457 0 0 0
465 47 8 -0.358962 7.769699280234771 21.543834057523288 13.033233141538446 0 0 0
462 47 3 0.404798 5.252774269647915 22.14884842267162 10.56967391704261 0 0 0
975 98 8 -0.358962 0.6617389578205576 18.812932889194542 12.150438106100468 0 0 0
769 77 9 -0.358962 8.035287538821263 23.192505363431575 9.82222041133647 0 -1 1
767 77 5 0.404798 8.1811708171169 23.257134642220972 8.703098077822244 0 -1 1
213 22 7 -0.358962 9.14850954371118 17.074284810445715 13.821480746441585 0 0 0
831 84 1 -0.091672 9.68973500624052 16.900638756788616 8.709651521616172 0 0 0
710 71 10 -0.358962 5.574901058587759 16.98864672526294 10.214040384724386 1 0 0
838 84 6 0.404798 8.617354602860665 15.919720251463636 10.547075117336053 0 0 0
582 59 3 0.404798 6.724271260416088 28.899536892681027 9.243402289938038 0 0 0
212 22 3 0.404798 8.386827066831264 16.295234852564846 14.22659711399136 0 0 0
1007 101 5 0.404798 1.8799204181743012 22.18070691036011 14.18039180377912 1 0 0
1180 118 10 -0.358962 4.904123844366945 21.071959065508036 15.100506049659467 0 0 0
765 77 8 -0.358962 8.680049547547556 26.688569310472985 7.984968426571783 0 -1 1