
pair_coeff 1 1 lj/cut 0.076 3.55 12
pair_coeff 1 2 lj/cut 0.076 3.55 12
pair_coeff 1 3 lj/cut 0.0708237 3.42272 12
pair_coeff 1 4 lj/cut 0.0708237 3.42272 12
pair_coeff 1 5 lj/cut 0.0708237 3.42272 12
pair_coeff 1 6 lj/cut 0.0708237 3.42272 12
pair_coeff 1 7 lj/cut 0.113666 3.37046 12
pair_coeff 1 8 lj/cut 0.113666 3.37046 12
pair_coeff 1 9 lj/cut 0.113666 3.37046 12
pair_coeff 1 10 lj/cut 0.113666 3.37046 12
pair_coeff 2 2 lj/cut 0.076 3.55 12
pair_coeff 2 3 lj/cut 0.0708237 3.42272 12
pair_coeff 2 4 lj/cut 0.0708237 3.42272 12
pair_coeff 2 5 lj/cut 0.0708237 3.42272 12
pair_coeff 2 6 lj/cut 0.0708237 3.42272 12
pair_coeff 2 7 lj/cut 0.113666 3.37046 12
pair_coeff 2 8 lj/cut 0.113666 3.37046 12
pair_coeff 2 9 lj/cut 0.113666 3.37046 12
pair_coeff 2 10 lj/cut 0.113666 3.37046 12
pair_coeff 3 3 lj/cut 0.066 3.3 12
pair_coeff 3 4 lj/cut 0.066 3.3 12
pair_coeff 3 5 lj/cut 0.066 3.3 12
pair_coeff 3 6 lj/cut 0.066 3.3 12
pair_coeff 3 7 lj/cut 0.105925 3.24962 12
pair_coeff 3 8 lj/cut 0.105925 3.24962 12
pair_coeff 3 9 lj/cut 0.105925 3.24962 12
pair_coeff 3 10 lj/cut 0.105925 3.24962 12
pair_coeff 4 4 lj/cut 0.066 3.3 12
pair_coeff 4 5 lj/cut 0.066 3.3 12
pair_coeff 4 6 lj/cut 0.066 3.3 12
pair_coeff 4 7 lj/cut 0.105925 3.24962 12
pair_coeff 4 8 lj/cut 0.105925 3.24962 12
pair_coeff 4 9 lj/cut 0.105925 3.24962 12
pair_coeff 4 10 lj/cut 0.105925 3.24962 12
pair_coeff 5 5 lj/cut 0.066 3.3 12
pair_coeff 5 6 lj/cut 0.066 3.3 12
pair_coeff 5 7 lj/cut 0.105925 3.24962 12
pair_coeff 5 8 lj/cut 0.105925 3.24962 12
pair_coeff 5 9 lj/cut 0.105925 3.24962 12
pair_coeff 5 10 lj/cut 0.105925 3.24962 12
pair_coeff 6 6 lj/cut 0.066 3.3 12
pair_coeff 6 7 lj/cut 0.105925 3.24962 12
pair_coeff 6 8 lj/cut 0.105925 3.24962 12
pair_coeff 6 9 lj/cut 0.105925 3.24962 12
pair_coeff 6 10 lj/cut 0.105925 3.24962 12
pair_coeff 7 7 lj/cut 0.17 3.2 12
pair_coeff 7 8 lj/cut 0.17 3.2 12
pair_coeff 7 9 lj/cut 0.17 3.2 12
pair_coeff 7 10 lj/cut 0.17 3.2 12
pair_coeff 8 8 lj/cut 0.17 3.2 12
pair_coeff 8 9 lj/cut 0.17 3.2 12
pair_coeff 8 10 lj/cut 0.17 3.2 12
pair_coeff 9 9 lj/cut 0.17 3.2 12
pair_coeff 9 10 lj/cut 0.17 3.2 12
pair_coeff 10 10 lj/cut 0.17 3.2 12


