LAMMPS data file via write_data, version 29 Sep 2021, timestep = 1000000

1620 atoms
20 atom types
1458 bonds
9 bond types
1620 angles
10 angle types
1944 dihedrals
12 dihedral types

0 30.025 xlo xhi
0 30.026 ylo yhi
0 30.026 zlo zhi
1.83856223955992e-15 1.83856223955992e-15 1.83856223955992e-15 xy xz yz

Masses

1 12.01
2 12.01
3 12.01
4 12.01
5 12.01
6 12.01
7 14.01
8 14.01
9 14.01
10 14.01
11 0.0001
12 0.0001
13 0.0001
14 0.0001
15 0.0001
16 0.0001
17 0.0001
18 0.0001
19 0.0001
20 0.0001

Bond Coeffs # harmonic

1 400 1.426
2 400 1.426
3 400 1.426
4 400 1.426
5 549 1.34
6 650 1.16
7 650 1.16
8 650 1.16
9 650 1.16

Angle Coeffs # harmonic

1 70 116.8
2 70 116.8
3 70 121.6
4 70 121.6
5 70 121.6
6 70 121.6
7 70 178.9
8 70 178.9
9 70 178.9
10 70 178.9

Dihedral Coeffs # opls

1 0 0 0 0
2 0 0 0 0
3 0 0 0 0
4 0 0 0 0
5 0 0 0 0
6 0 0 0 0
7 0 0 0 0
8 0 0 0 0
9 0 14 0 0
10 0 14 0 0
11 0 14 0 0
12 0 14 0 0

Atoms # full

1090 109 10 -0.358962 12.66126836115501 9.388746860604046 1.965983580622453 0 0 1
1100 110 10 -0.358962 7.667806624859678 4.823449581375863 6.977675186119786 0 0 1
1251 126 1 -0.091672 5.030391977626361 4.952177386457532 0.45928447598268796 1 0 1
1591 160 1 -0.091672 0.19417577975218597 0.1131782839741618 5.641229697746515 1 1 1
1248 125 6 0.404798 6.105749756908082 8.589436930547043 5.149067272103355 1 0 1
1132 114 3 0.404798 14.968492348832278 5.8436105868539405 1.817440687547257 0 0 1
1246 125 2 -0.091672 4.869264246339147 9.305974061697137 5.328894838049702 1 0 1
1096 110 2 -0.091672 9.37514522873624 4.862797273224412 5.012899017080589 0 0 1
1478 148 6 0.404798 10.370087298325032 0.9096675692293595 3.686918386690497 0 1 1
1480 148 10 -0.358962 10.243763382655537 1.821006890599365 3.0021457985854663 0 1 1
1473 148 7 -0.358962 10.331221146087012 1.9405070902836672 7.290276690367446 0 1 1
1472 148 3 0.404798 10.309331820748135 0.9253986599216476 6.7180021388918005 0 1 1
1252 126 3 0.404798 5.082925170775124 6.104554661997466 1.2575988741561632 1 0 1
1484 149 4 0.404798 14.109069993232774 1.4910487721002104 5.0457027846717395 0 1 1
1485 149 8 -0.358962 13.111845922141944 2.0559567327000177 4.953574679636398 0 1 1
1604 161 4 0.404798 4.16037466681927 1.7116520586813657 4.588928334740265 1 1 1
1605 161 8 -0.358962 3.223440204071923 2.403272084170277 4.670020565635363 1 1 1
1094 110 4 0.404798 11.464774080559247 5.141330303655474 3.880268902229612 0 0 1
1095 110 8 -0.358962 12.018244849759194 5.307211868351601 2.8765235919978003 0 0 1
1214 122 4 0.404798 1.3551561752212096 5.035751159164738 3.9657024504386817 1 0 1
1215 122 8 -0.358962 2.1778180356896866 4.784266192929629 3.153747886577016 1 0 1
1091 110 1 -0.091672 10.728735174093863 4.924362073494316 5.119490481291843 0 0 1
1092 110 3 0.404798 11.412532380971225 4.876244799400711 6.340941535038568 0 0 1
1253 126 7 -0.358962 5.161719088172399 7.064473040443116 1.9534922594514237 1 0 1
1088 109 6 0.404798 13.44893547806985 9.562061429825787 1.145654943786265 0 0 1
1212 122 3 0.404798 1.1658702250269937 5.108476872089746 6.21146673452224 1 0 1
1250 125 10 -0.358962 7.0724550465696865 7.947075434878502 5.074864750891514 1 0 1
1117 112 5 0.404798 9.780996052351062 8.769001877343936 3.638233707754949 0 0 1
1119 112 9 -0.358962 9.832816502880235 7.91968091568819 2.885571736273697 0 0 1
1114 112 4 0.404798 9.89401815110566 8.461965868110097 6.676362747075465 0 0 1
1099 110 9 -0.358962 8.07315542912281 4.927845020091529 2.7566288702361503 0 0 1
1127 113 5 0.404798 13.814458256424142 8.638442936104902 5.144182107538419 0 0 1
1129 113 9 -0.358962 12.72391882264034 8.222990024965656 4.950233081943454 0 0 1
1247 125 5 0.404798 3.6731363306555638 8.45007982621435 5.341573268059468 1 0 1
1249 125 9 -0.358962 2.6913108071125267 7.8585309985472325 5.4031222085244295 1 0 1
1601 161 1 -0.091672 5.338103228544855 0.8670462924946797 4.686657481537054 1 1 1
1255 126 8 -0.358962 5.191948294647764 2.8009206489996443 1.9191211252437734 1 0 1
1208 121 6 0.404798 3.6735576047032934 9.90758611291892 1.5127427141740277 1 0 1
1097 110 5 0.404798 8.667478134924341 4.929300587958109 3.7622337766664717 0 0 1
1098 110 6 0.404798 8.403640797173804 4.831000160956042 6.056613822239159 0 0 1
1254 126 4 0.404798 5.1495907852878124 3.713493688540418 1.2271307809208636 1 0 1
1210 121 10 -0.358962 3.1342454936632587 9.766099069801625 2.529476455270495 1 0 1
1602 161 3 0.404798 6.616484720625077 1.4741797452339087 4.792569724791653 1 1 1
1603 161 7 -0.358962 7.628088340715116 1.9846698031425776 4.9224739104924815 1 1 1
1596 160 2 -0.091672 0.29751812024929886 0.16154567534402564 4.305995470265048 1 1 1
1211 122 1 -0.091672 0.37648012672558623 5.080906716574238 5.009358097545607 1 0 1
1093 110 7 -0.358962 11.92231421948669 4.979564275841425 7.410686585428613 0 0 1
1116 112 2 -0.091672 9.829518412633476 9.826120274041083 4.554219407984236 0 0 1
1111 112 1 -0.091672 9.888722636651062 9.723536285159842 5.918022665230305 0 0 1
1593 160 7 -0.358962 0.0033020521776217144 2.307216021204829 6.909853297210737 1 1 1
1115 112 8 -0.358962 9.980672265471732 7.550814984677762 7.3030619412639295 0 0 1
1134 114 4 0.404798 14.92935005902428 3.3886449500768094 1.628035406648895 0 0 1
1135 114 8 -0.358962 14.885138819859927 2.3239884401910404 2.0582607049652553 0 0 1
1221 123 1 -0.091672 0.07945152137657908 5.674468201798957 0.18202750233848272 1 0 1
1598 160 6 0.404798 0.1496944618452181 1.4171743154670073 3.62365443924512 1 1 1
1133 114 7 -0.358962 14.96121034313404 6.85140572881427 2.4621123106564786 0 0 1
1131 114 1 -0.091672 14.988629205788554 4.677949927478296 1.0057739347727255 0 0 1
1592 160 3 0.404798 0.10000623166415937 1.3307917905703235 6.38801921301149 1 1 1
1106 111 2 -0.091672 10.200485307982511 4.443213585148183 0.26084523113680075 0 0 1
1110 111 10 -0.358962 12.1739572930749 2.7995269262287765 0.3706882468400422 0 0 1
1570 157 10 -0.358962 3.4341369690315786 0.051477399842885276 2.102723472272293 1 1 1
1222 123 3 0.404798 1.3377269180186948 6.348106143860241 0.24476528892850427 1 0 1
1108 111 6 0.404798 11.312163380501989 3.568702205735952 0.22691716263447506 0 0 1
1230 123 10 -0.358962 2.112403010868996 2.933858086807756 0.4749878510429688 1 0 1
1223 123 7 -0.358962 2.349369997393071 6.886557384157984 0.21821067221227766 1 0 1
1228 123 6 0.404798 1.1020067596641059 3.5623042987782054 0.43932141462767776 1 0 1
1226 123 2 -0.091672 0.008945766381004264 4.3691393908743095 0.3513591598856476 1 0 1
1206 121 2 -0.091672 4.390249551459115 9.91813085518729 0.277028601095515 1 0 1
1213 122 7 -0.358962 1.788911866985605 5.234317958658231 7.178645079748855 1 0 1
1086 109 2 -0.091672 14.456300862614933 9.745596784127379 0.08388676862943045 0 0 1
1107 111 5 0.404798 8.980926014180127 3.6811375434428877 0.12183438165264564 0 0 1
30 3 10 -0.358962 11.832068214428844 2.7306071577423503 10.454086553827507 0 0 0
51 6 1 -0.091672 14.72788607360355 4.729258136754731 11.034741694308575 0 0 0
482 49 3 0.404798 6.2318183513950425 0.04911236868682537 11.228191113192858 1 1 0
172 18 3 0.404798 4.883908263382992 6.261863520889398 11.379657788268615 1 0 0
150 15 10 -0.358962 1.6088708543871706 2.549330285844611 10.153385197473655 1 0 0
54 6 4 0.404798 14.804647857650554 3.5064127199972406 11.793125647776256 0 0 0
481 49 1 -0.091672 5.600875976044945 0.09553009501906445 9.947037920793111 1 1 0
177 18 5 0.404798 4.975434317367264 3.8172681310210144 8.547438354541008 1 0 0
55 6 8 -0.358962 14.901632536537509 2.501746637503795 12.394419170420043 0 0 0
25 3 8 -0.358962 7.742913747429276 7.084275208450399 10.085331483469922 0 0 0
398 40 6 0.404798 9.56632422119929 1.381296240465823 13.315572979948705 0 1 0
400 40 10 -0.358962 9.518382532867516 2.403480494798034 12.721870120065558 0 1 0
19 2 9 -0.358962 7.769767878101385 4.995891065089879 12.6928275562781 0 0 0
17 2 5 0.404798 8.292454005377143 4.963896909624594 13.736195996198234 0 0 0
52 6 3 0.404798 14.873348316818927 5.908542839561625 11.785334109633462 0 0 0
178 18 6 0.404798 4.805745274982938 6.270676424252507 8.505489115153253 1 0 0
171 18 1 -0.091672 5.00681303949063 5.0371377958116375 10.613752432929966 1 0 0
176 18 2 -0.091672 4.970549908443367 5.011851916096784 9.251611904546486 1 0 0
21 3 1 -0.091672 9.976134821454368 5.715389194969924 10.186864046752364 0 0 0
22 3 3 0.404798 11.165390398974257 6.408892846526124 10.375589533523621 0 0 0
26 3 2 -0.091672 9.92714869494628 4.422680600163802 10.148586584670978 0 0 0
28 3 6 0.404798 10.97984557206424 3.452411852447226 10.358763481788445 0 0 0
173 18 7 -0.358962 4.904459326684807 7.251062554496871 12.036503345985569 1 0 0
142 15 3 0.404798 1.0279336915302595 6.2084054501129975 10.262418503681033 1 0 0
174 18 4 0.404798 4.97050901061187 3.823641178938649 11.39992138154415 1 0 0
148 15 6 0.404798 0.7637409556251636 3.3267121327934985 10.070989501406562 1 0 0
14 2 4 0.404798 11.00035788195458 4.904778576468115 13.841041633685633 0 0 0
15 2 8 -0.358962 11.68226492191909 4.919824274221964 12.881693238542233 0 0 0
134 14 4 0.404798 1.2711229536945445 4.684064900578993 13.642383781148068 1 0 0
135 14 8 -0.358962 1.9436423057090462 4.755610204152342 12.653249696460922 1 0 0
175 18 8 -0.358962 4.940720653830083 2.9157835392666303 12.146593425770675 1 0 0
27 3 5 0.404798 8.670299069296501 3.779866536094907 10.160983527196148 0 0 0
23 3 7 -0.358962 12.134059653124439 7.049636150709387 10.420088324239787 0 0 0
143 15 7 -0.358962 2.032265819066342 6.787575554023546 10.357926712773235 1 0 0
37 4 5 0.404798 9.90656973066727 8.732351220657666 13.678032367065214 0 0 0
39 4 9 -0.358962 9.860242046063307 7.801259562050138 12.968520918989249 0 0 0
179 18 9 -0.358962 4.983183009567198 2.8111741648540485 7.995382603892718 1 0 0
24 3 4 0.404798 8.76775368065256 6.525472985262142 10.01252742964354 0 0 0
29 3 9 -0.358962 7.695924063243692 3.2198480129113873 10.134663555314324 0 0 0
180 18 10 -0.358962 4.695888870918748 7.233609436644493 7.913386865322366 1 0 0
60 6 10 -0.358962 14.869703650548356 6.945291370330799 8.293981914732823 0 0 0
486 49 2 -0.091672 4.25543448467712 0.05481593375209908 10.036075537852547 1 1 0
59 6 9 -0.358962 14.195231481474657 2.5496668795962925 8.411600988555998 0 0 0
127 13 5 0.404798 3.2852936150192926 10.005881725309681 8.86141293322495 1 0 0
396 40 2 -0.091672 9.747554645489554 0.16707445562563722 14.0510667662665 0 1 0
125 13 8 -0.358962 7.147572965173575 9.737843098750059 8.124264576229624 1 0 0
518 52 6 0.404798 0.0499355669920809 1.0968922108903147 13.653200773047551 1 1 0
58 6 6 0.404798 14.670835277092488 5.984147432209322 8.970661113714916 0 0 0
36 4 2 -0.091672 9.93693095114192 9.958113618948671 14.490665434666408 0 0 0
56 6 2 -0.091672 14.560044569141107 4.756596297824724 9.696692274125397 0 0 0
124 13 4 0.404798 6.298372898147582 9.846667780344543 8.974246227379277 1 0 0
131 14 1 -0.091672 0.5063139577361916 4.8542143002183655 14.858056088881275 1 0 0
7 1 5 0.404798 13.412492624797387 9.853485168453446 9.114898103110551 0 0 0
487 49 5 0.404798 3.588155885223957 0.010782109478571705 8.794291011665196 1 1 0
57 6 5 0.404798 14.327254368838013 3.6020569700326464 8.900510223465496 0 0 0
121 13 1 -0.091672 5.387787186726567 9.93664328738016 10.13319268761059 1 0 0
129 13 9 -0.358962 2.6269063504792904 9.980981497564324 7.927287145838606 1 0 0
123 13 7 -0.358962 6.822768271678197 9.75383869110903 12.168475169913911 1 0 0
524 53 4 0.404798 3.579287785207002 1.4283167967203998 14.715079666450139 1 1 0
122 13 3 0.404798 6.113611556036038 9.84015502431982 11.284600969767627 1 0 0
485 49 8 -0.358962 7.087686169816612 0.3658301945464222 7.808920082377029 1 1 0
484 49 4 0.404798 6.423429342048634 0.18101842290673784 8.778121191121556 1 1 0
16 2 2 -0.091672 8.983231067242732 4.927104272953945 15.006300635243148 0 0 0
521 53 1 -0.091672 4.785381501022083 0.7120342011719114 14.888678849690685 1 1 0
10 1 10 -0.358962 12.924972948278269 10.002583629296682 12.456711801930254 0 0 0
9 1 9 -0.358962 12.658148167694039 9.793312696091574 8.187935370839297 0 0 0
525 53 8 -0.358962 2.583133784053401 2.0607078269250065 14.572109126697177 1 1 0
49 5 9 -0.358962 12.824240484116025 8.07655690868816 14.914934014360044 0 0 0
169 17 9 -0.358962 2.6563100454473445 8.582775067813012 14.901818660421798 1 0 0
159 16 9 -0.358962 0.0060128248651130116 7.90082908295905 12.821036711470128 1 0 0
128 13 6 0.404798 3.3021534429773913 9.97671189526626 11.238525848580892 1 0 0
570 57 10 -0.358962 12.654977199622937 3.118532951081682 20.451809130123856 0 0 0
1028 103 6 0.404798 3.936150984771914 0.2387670288726952 21.116290242668374 1 1 0
686 69 2 -0.091672 0.028816188255354588 4.543735537252954 20.126567968505 1 0 0
715 72 8 -0.358962 5.48365468560812 2.814050464476212 21.931550365145217 1 0 0
690 69 10 -0.358962 2.3088920940906834 3.2902703801889595 19.689518757572397 1 0 0
909 91 9 -0.358962 12.977655752611922 0.04762351789633043 18.184398458726495 0 1 0
719 72 9 -0.358962 5.2691645494196315 2.70413876462136 18.02600593479655 1 0 0
906 91 2 -0.091672 14.503666513187838 0.13251482048663016 20.33483932447189 0 1 0
711 72 1 -0.091672 5.392850161471292 5.048308395825567 20.59558774988423 1 0 0
392 40 3 0.404798 9.863840513791656 1.3151234781154117 16.224940949667783 0 1 0
393 40 7 -0.358962 9.834398202420873 2.221752735217091 16.93748203126214 0 1 0
1027 103 5 0.404798 3.840100339687195 0.2375967208100592 18.793847098294695 1 1 0
714 72 4 0.404798 5.45317555342982 3.836300550964795 21.36814347545496 1 0 0
565 57 8 -0.358962 7.804460833227935 6.625329165202239 19.73135893096551 0 0 0
718 72 6 0.404798 5.0604939623870155 6.054990631355953 18.39042103205257 1 0 0
717 72 5 0.404798 5.265100660407025 3.6845823773000497 18.613093150707634 1 0 0
716 72 2 -0.091672 5.176065951172888 4.89889956302692 19.26256083950482 1 0 0
561 57 1 -0.091672 10.1470896659074 5.479794431753312 19.941879682555786 0 0 0
562 57 3 0.404798 11.275640035437016 6.326198632059658 20.08123842195152 0 0 0
566 57 2 -0.091672 10.339673749022383 4.158999211132008 20.131035939590358 0 0 0
568 57 6 0.404798 11.599900565334677 3.5756883090128673 20.248042185527858 0 0 0
720 72 10 -0.358962 4.8725764946635 7.006954395290088 17.75023760814041 1 0 0
682 69 3 0.404798 1.2415458984669911 6.6519627865672115 20.22106959719368 1 0 0
564 57 4 0.404798 8.840357665336406 6.088938677680972 19.759809947483014 0 0 0
688 69 6 0.404798 1.2806095340560515 3.8626075541741653 19.945802844898317 1 0 0
12 2 3 0.404798 11.066967845366925 4.85899889143453 16.300899274700825 0 0 0
13 2 7 -0.358962 11.717019704247456 5.055256160896298 17.271457346793188 0 0 0
132 14 3 0.404798 1.248996515059909 4.999166206641226 16.028173390583373 1 0 0
133 14 7 -0.358962 1.7853441236194334 5.1548517492843535 17.02910238221414 1 0 0
563 57 7 -0.358962 12.20123179897182 6.956876180886712 20.2366442866044 0 0 0
683 69 7 -0.358962 2.2437770627449214 7.1785342993246815 20.322251733281274 1 0 0
34 4 4 0.404798 9.806932593543335 8.973635358307348 16.674330523618536 0 0 0
35 4 8 -0.358962 9.971849496334707 7.972408211440975 17.25918690186 0 0 0
20 2 10 -0.358962 7.44868144545354 5.36154009984908 16.95918181172777 0 0 0
712 72 3 0.404798 5.454017134604909 6.335702963991986 21.2431100554379 1 0 0
569 57 9 -0.358962 8.31749437582131 2.603172984802549 19.815458179835826 0 0 0
18 2 6 0.404798 8.1523018639003 5.110008257568607 16.117266275823585 0 0 0
567 57 5 0.404798 9.277160484924844 3.2281413604193263 19.999775133670646 0 0 0
908 91 6 0.404798 13.837675855041315 0.05845168953126189 21.52122388509853 0 1 0
1029 103 9 -0.358962 3.1895419737461923 0.3753208362544345 17.855517033451626 1 1 0
47 5 5 0.404798 13.885107432961952 8.581352943274192 15.07082480466613 0 0 0
1022 103 3 0.404798 6.7373510561587375 0.10739664144671066 21.121512563185153 1 1 0
404 41 4 0.404798 13.854935566262096 1.2056600397860258 15.165322690010417 0 1 0
166 17 2 -0.091672 4.984381797724335 9.645133804583478 15.29320416772739 1 0 0
391 40 1 -0.091672 9.837487360677247 0.1824274902932578 15.398332716434059 0 1 0
405 41 8 -0.358962 12.901593815747741 1.8643928578546893 15.293160829767563 0 1 0
600 60 10 -0.358962 14.958982269549342 7.11593264037359 17.85686695498086 0 0 0
713 72 7 -0.358962 5.534829178341061 7.343610557003212 21.813479192014753 1 0 0
1023 103 7 -0.358962 7.281137632051942 0.15308595193407432 22.185401167539087 1 1 0
1030 103 10 -0.358962 3.2368036529315733 0.3214882549682285 22.0965243492038 1 1 0
547 55 5 0.404798 13.469873862661416 9.964113661375272 18.660527246730386 0 0 0
907 91 5 0.404798 13.645734345803579 0.14708672798089056 19.120060067720896 0 1 0
1021 103 1 -0.091672 5.991827441275067 0.004884073060212657 19.969370675425647 1 1 0
549 55 9 -0.358962 12.770400353807894 9.951968353716177 17.750503658293134 0 0 0
523 53 7 -0.358962 6.818311659474644 2.2442751272156047 15.222981553951845 1 1 0
511 52 1 -0.091672 0.05803574130656777 0.03003510574182297 15.866492773146364 1 1 0
548 55 6 0.404798 13.592867482032146 9.980543481883576 21.06910978546349 0 0 0
168 17 6 0.404798 6.062185608046942 8.78614849910253 15.440457701872448 1 0 0
170 17 10 -0.358962 6.939986937657059 8.068799577654925 15.50992862359635 1 0 0
167 17 5 0.404798 3.692663951685107 9.06188900132902 15.159113848878789 1 0 0
1026 103 2 -0.091672 4.661990142706651 0.10413678615504673 19.952734136387157 1 1 0
665 67 8 -0.358962 7.242183901333997 9.556140801234177 18.15386472946372 1 0 0
11 2 1 -0.091672 10.320474793467016 4.792226782009534 15.068248035023812 0 0 0
664 67 4 0.404798 6.477157188805522 9.799338037116271 18.994200746137288 1 0 0
910 91 10 -0.358962 13.224173223378589 0.08895215501238374 22.516347135564402 0 1 0
522 53 3 0.404798 5.922344103471967 1.5774041361558913 15.037685765479731 1 1 0
546 55 2 -0.091672 14.335930639711568 9.996993153456566 19.862263291816124 0 0 0
1259 126 9 -0.358962 5.097981048106574 2.966450934165803 27.609713394425146 1 0 0
675 68 8 -0.358962 2.122115761299178 5.4009683566827364 22.8113718965624 1 0 0
1051 106 1 -0.091672 0.4399644410941696 0.2611598761492242 25.637175912711825 1 1 0
557 56 5 0.404798 8.770242818292036 4.864008825750352 23.719741370055345 0 0 0
938 94 6 0.404798 10.061118889045783 1.3496712614703814 23.759932731416633 0 1 0
1089 109 9 -0.358962 13.394374527234207 9.945400521169068 27.690162848248804 0 0 0
579 58 9 -0.358962 10.005303358064376 7.853553151163794 22.921177791594385 0 0 0
932 94 3 0.404798 10.237364064475093 1.3050704327231464 26.503861436263392 0 1 0
933 94 7 -0.358962 10.273336739672189 2.226543189442938 27.183847833269166 0 1 0
944 95 4 0.404798 13.981443080548097 1.1980121000391448 25.349155394605305 0 1 0
945 95 8 -0.358962 13.029492829401955 1.9165487306068802 25.44657288654205 0 1 0
1064 107 4 0.404798 4.226526812996761 1.630249330898369 24.96635171393422 1 1 0
1065 107 8 -0.358962 3.206161000889244 2.2149245812852496 24.895845115910845 1 1 0
708 71 6 0.404798 6.414976288100777 8.702741146165451 24.94842582378029 1 0 0
1257 126 5 0.404798 5.079176095863971 3.850020647055535 28.297019056163194 1 0 0
556 56 2 -0.091672 9.478302566390731 5.025478018066741 24.952104316681023 0 0 0
710 71 10 -0.358962 7.3646586386852935 8.070705648422786 25.009141194406556 1 0 0
559 56 9 -0.358962 8.188299944334124 4.9264206671454795 22.712980546422965 0 0 0
706 71 2 -0.091672 5.2023913621643905 9.422067867105785 24.869380210120895 1 0 0
1449 145 9 -0.358962 12.95268432109536 0.0608075457744587 28.24621844759344 0 1 0
560 56 10 -0.358962 7.975740263651951 5.278317044471894 27.107042326747976 0 0 0
1260 126 10 -0.358962 5.35417061614436 7.335176704317611 28.09154842976837 1 0 0
1061 107 1 -0.091672 5.352533233154365 0.8106103738067723 25.048366014404838 1 1 0
558 56 6 0.404798 8.663670271933075 5.180213668611053 26.15195504806469 0 0 0
1063 107 7 -0.358962 7.438507062883277 2.3325586083994354 25.37245667630125 1 1 0
554 56 4 0.404798 11.604954194130526 5.233528611046584 23.820342140450986 0 0 0
555 56 8 -0.358962 12.23199569323164 5.429807143664465 22.87185115483381 0 0 0
674 68 4 0.404798 1.5149580090069343 5.259239275092783 23.76352927570187 1 0 0
1062 107 3 0.404798 6.5236928010719755 1.595259257035593 25.226308271230877 1 1 0
551 56 1 -0.091672 10.805703965927972 5.175907762826398 24.985684519123076 0 0 0
552 56 3 0.404798 11.540862293351545 5.2122477826079505 26.2052624374995 0 0 0
553 56 7 -0.358962 12.218976413423192 5.29787305506743 27.157369486809397 0 0 0
1256 126 2 -0.091672 5.078845446923491 4.974355907683012 29.155658068218592 1 0 0
672 68 3 0.404798 1.7181762913797776 5.072773673367229 26.119183443497583 1 0 0
673 68 7 -0.358962 2.425114462193834 5.103478003303303 27.04259264367544 1 0 0
940 94 10 -0.358962 9.983875926371809 2.365132700611037 23.17376320268412 0 1 0
1258 126 6 0.404798 5.299707820920127 6.244073113601818 28.484834778144243 1 0 0
577 58 5 0.404798 9.869846232392847 8.774058889222035 23.618736376592445 0 0 0
1060 106 10 -0.358962 0.13468745156107223 2.5289971556478363 23.0178084282324 1 1 0
574 58 4 0.404798 9.928119878648245 8.705090389471227 26.42743567913196 0 0 0
575 58 8 -0.358962 9.923619395511498 7.750174749653132 27.01947383573081 0 0 0
587 59 5 0.404798 13.665610663004387 8.52984214021293 25.05368976761363 0 0 0
589 59 9 -0.358962 12.643552872210352 8.029090503190464 25.22958445016195 0 0 0
707 71 5 0.404798 4.019839773304512 8.620821279458877 24.648403221744086 1 0 0
709 71 9 -0.358962 3.0187695699514423 8.045728909228416 24.576405899607394 1 0 0
691 70 1 -0.091672 0.01738713199051521 9.964594664763492 25.757577925718422 1 0 0
1052 106 3 0.404798 0.42804608908745934 1.4202012653947989 26.442352126870937 1 1 0
671 68 1 -0.091672 0.8475844479202805 5.121927051485192 25.024721646513296 1 0 0
931 94 1 -0.091672 10.203777663952575 0.06057406477211125 25.74891300166161 0 1 0
1109 111 9 -0.358962 8.045547611107954 3.1860410836112214 29.946894786611416 0 0 0
1209 121 9 -0.358962 3.1079535231494457 9.794315960479283 28.07469284605864 1 0 0
576 58 2 -0.091672 9.740719535749879 9.97568933431827 24.410203466704516 0 0 0
1053 106 7 -0.358962 0.3238736511065978 2.366911575700816 27.175917791474035 1 1 0
1056 106 2 -0.091672 0.39301600640202616 0.2492997340002775 24.266135269418662 1 1 0
1207 121 5 0.404798 3.637835150044258 9.751428685676274 29.09296425746718 1 0 0
1569 157 9 -0.358962 3.0351566092094164 0.1316645429000433 27.798562270573274 1 1 0
1102 111 3 0.404798 11.424502248049734 6.473200637092222 29.955408042731964 0 0 0
586 59 2 -0.091672 14.926343946127552 9.11927635092798 24.878398211892595 0 0 0
936 94 2 -0.091672 10.143490569445005 0.09120475750077682 24.441653606358273 0 1 0
1104 111 4 0.404798 9.064493013952546 6.55969524605185 29.892228239976728 0 0 0
1058 106 6 0.404798 0.29157816412508886 1.4553125553754995 23.497787394733873 1 1 0
571 58 1 -0.091672 9.841456287434893 9.988653543345267 25.73004962025514 0 0 0
1087 109 5 0.404798 13.846981805658878 9.925072750855563 28.812489022115304 0 0 0
1103 111 7 -0.358962 12.50828975474056 6.892159612445566 29.798760104737198 0 0 0
1105 111 8 -0.358962 8.147634767622966 7.292456154540235 29.68382861294618 0 0 0
1101 111 1 -0.091672 10.20186700135699 5.768197454544221 30.00564815492891 0 0 0
1113 112 7 -0.358962 10.050127275638474 11.808257628976273 7.404498787844348 0 0 1
1241 125 1 -0.091672 4.812907670688268 10.647217173977857 5.398326137963963 1 0 1
1240 124 10 -0.358962 0.10194832071255226 12.095718191903844 2.618482042156411 1 0 1
1203 121 7 -0.358962 7.143793226972085 10.398292489033693 2.3432602312799427 1 0 1
1278 128 6 0.404798 8.505659642466433 14.815991337053296 6.055678680222609 0 0 1
1315 132 8 -0.358962 14.987703647084848 12.726125731336305 1.7395674898192137 0 0 1
1118 112 6 0.404798 9.931791901635458 11.129703521345103 3.90846709094691 0 0 1
1120 112 10 -0.358962 9.886246826859319 12.146794273439479 3.3943906806008197 0 0 1
1433 144 7 -0.358962 4.919921626923886 17.248493677379066 2.1031355284386524 1 0 1
1112 112 3 0.404798 9.980389477369656 10.802287168118907 6.766698668056869 0 0 1
1426 143 2 -0.091672 5.007644743903439 19.587138778894772 5.017891830348977 1 0 1
1124 113 4 0.404798 14.142937670302372 11.437966550194794 5.079148832515214 0 0 1
1125 113 8 -0.358962 13.094625369701719 11.982162364060041 4.970280108778851 0 0 1
1244 125 4 0.404798 3.566888950286823 11.35068825863618 5.360578579200862 1 0 1
1245 125 8 -0.358962 2.581441172871832 11.961923093974299 5.282456313206714 1 0 1
1274 128 4 0.404798 11.251216725621374 14.801004423318817 3.6430214163795567 0 0 1
1275 128 8 -0.358962 11.88940097777234 14.783842981174667 2.7069248250345477 0 0 1
1394 140 4 0.404798 1.201417265609709 15.082382746358276 3.826342675805754 1 0 1
1395 140 8 -0.358962 1.8721048558267919 15.11022188453222 2.8947778632614565 1 0 1
1271 128 1 -0.091672 10.561677273620703 14.76535037295368 4.850529296921588 0 0 1
1272 128 3 0.404798 11.435991901817944 14.66612871379406 5.989742785724976 0 0 1
1279 128 9 -0.358962 7.76416950731035 15.063954046734555 2.9050606463912305 0 0 1
1431 144 1 -0.091672 4.940006390091322 15.020524956779909 0.7727175441576057 1 0 1
1392 140 3 0.404798 1.1102914261617178 15.154736988524544 6.288446048268186 1 0 1
1277 128 5 0.404798 8.389709799738766 14.832139290765616 3.8259401650041274 0 0 1
1297 130 5 0.404798 9.42869299863655 18.946022730547682 3.60365295749058 0 0 1
1299 130 9 -0.358962 9.1691609457163 17.951903642324073 3.0790087328823113 0 0 1
1294 130 4 0.404798 9.84512017092287 18.830542787912414 6.4884370078444835 0 0 1
1382 139 3 0.404798 6.242038067268722 19.70141920168935 1.1610587967928137 1 0 1
1307 131 5 0.404798 13.583128157974338 18.291486318688293 5.245495540672726 0 0 1
1309 131 9 -0.358962 12.655449350761147 17.670226399632956 5.537000248646457 0 0 1
1427 143 5 0.404798 3.7974042780474355 18.852839160991667 4.952890391238625 1 0 1
1429 143 9 -0.358962 2.8088589216911495 18.18757554580492 4.816247496395403 1 0 1
1391 140 1 -0.091672 0.4264574535207204 15.000256637402988 5.018977875660082 1 0 1
1388 139 6 0.404798 3.3723504545528993 19.839842900640562 1.0258749287445705 1 0 1
1280 128 10 -0.358962 7.886104288307882 14.795455813856876 7.0242109730090405 0 0 1
1430 143 10 -0.358962 7.163092751281437 18.15877631193736 5.425333189320743 1 0 1
1435 144 8 -0.358962 4.859366329171253 12.817822969205015 2.192354306380044 1 0 1
1428 143 6 0.404798 6.185616025856725 18.78898069865481 5.215343245427341 1 0 1
1276 128 2 -0.091672 9.242254480839371 14.631095057217896 4.890804008544163 0 0 1
1242 125 3 0.404798 6.065641936246685 11.347285659823102 5.219448717069886 1 0 1
1243 125 7 -0.358962 7.006183169559724 12.014765048781586 4.989106898974491 1 0 1
1393 140 7 -0.358962 1.809443229241271 15.253373540219972 7.213899726996671 1 0 1
1432 144 3 0.404798 4.8915604333351785 16.26268649182669 1.4694670132979895 1 0 1
1434 144 4 0.404798 4.925755293179086 13.808901369969115 1.5617850830342013 1 0 1
1282 129 3 0.404798 10.980304851264144 16.554400652753475 0.1890072358691737 0 0 1
1270 127 10 -0.358962 12.727987109928817 19.59687975504969 2.294242255879036 0 0 1
1202 121 3 0.404798 6.5301333247294 10.205945353751128 1.3954533002231875 1 0 1
1306 131 2 -0.091672 14.817704696400737 19.10491779333464 5.106491023157799 0 0 1
1383 139 7 -0.358962 6.780390826452182 19.845790499124043 2.1429449552752713 1 0 1
1295 130 8 -0.358962 9.76179043899817 17.8247145054606 7.103780373897878 0 0 1
1313 132 7 -0.358962 14.983951235649698 17.106569829607324 1.8892320394822906 0 0 1
1288 129 6 0.404798 11.110008789091253 13.636577533844767 0.24219919523889694 0 0 1
1268 127 6 0.404798 13.39147099112474 19.662344272942622 1.3486868989651315 0 0 1
1403 141 7 -0.358962 2.087998399668353 17.223508247353045 0.6424138106946833 1 0 1
1273 128 7 -0.358962 12.158655034381184 14.661516090535734 6.860699933394893 0 0 1
1402 141 3 0.404798 1.0772572895871144 16.680006380064665 0.4150194705369261 1 0 1
1290 129 10 -0.358962 12.066770178468262 12.985679582905231 0.13439900945837685 0 0 1
1201 121 1 -0.091672 5.709363151348719 10.060834045357426 0.2501066026334116 1 0 1
1289 129 9 -0.358962 7.625457500551988 13.095223637968186 0.4493998139144761 0 0 1
1287 129 5 0.404798 8.644987824184604 13.551776849997356 0.3069234135878246 0 0 1
1281 129 1 -0.091672 9.79581833950889 15.703030217884628 0.13974989937716906 0 0 1
1266 127 2 -0.091672 14.159015915776234 19.68915318983778 0.10155955462286231 0 0 1
1286 129 2 -0.091672 9.88981968525296 14.375225168676739 0.16141167706179857 0 0 1
1408 141 6 0.404798 1.042023439905355 13.838096536031745 0.0732550709855325 1 0 1
1283 129 7 -0.358962 11.85998063503771 17.296174026976512 0.13370096673794227 0 0 1
301 31 1 -0.091672 5.762052753932786 19.72735335275884 9.929311498277169 1 0 0
350 35 10 -0.358962 7.476128773345452 17.960223597830538 14.988885206116988 1 0 0
238 24 6 0.404798 14.993891787191355 16.045152028252556 8.642927968844004 0 0 0
210 21 10 -0.358962 11.936131873856013 12.445491062171874 9.906058508869531 0 0 0
232 24 3 0.404798 14.989734054159126 16.118895449126054 11.361948877334115 0 0 0
226 23 2 -0.091672 14.894503990608346 19.12716233660476 14.864553854364676 0 0 0
240 24 10 -0.358962 15.008948957913951 16.986939539229866 7.930702319546029 0 0 0
330 33 10 -0.358962 1.9789162198117811 12.991309186911966 9.938952573615369 1 0 0
38 4 6 0.404798 9.868832355770492 11.114089159724951 13.639881936796211 0 0 0
40 4 10 -0.358962 9.792332056056347 11.940384703615038 12.875590932691239 0 0 0
358 36 6 0.404798 4.490892875001781 16.192754522114587 8.382812310386118 1 0 0
196 20 2 -0.091672 9.22435569531752 14.795678745146223 14.80005897825495 0 0 0
204 21 4 0.404798 8.861659508587865 16.210808400732763 9.82215840609938 0 0 0
355 36 8 -0.358962 4.742991380069736 12.835113914549002 11.866725683906555 1 0 0
356 36 2 -0.091672 4.573277781203378 15.030245417217845 9.211801160305399 1 0 0
236 24 2 -0.091672 14.994121710650726 14.799601315625173 9.361467889726903 0 0 0
201 21 1 -0.091672 10.06419237792621 15.401636375442584 9.841484035257594 0 0 0
202 21 3 0.404798 11.272038952282424 16.068172906732794 9.88718712924564 0 0 0