LAMMPS data file
# Generated by Playmol on 25-Nov-2024 at 13:58:22

3 atom types
3 bond types
3 angle types
3 dihedral types

1620 atoms
1458 bonds
1620 angles
1944 dihedrals

-20.0000000 20.0000000 xlo xhi
-20.0000000 20.0000000 ylo yhi
-20.0000000 20.0000000 zlo zhi

Masses

1 12.01 # CZ
2 12.01 # CM
3 14.01 # NZ

# Elements: C? C? N?

Pair Coeffs # lj/cut/coul/long

1 0.0660 3.30000 # CZ
2 0.0760 3.55000 # CM
3 0.1700 3.20000 # NZ

Bond Coeffs # harmonic

1 650.0 1.160 # CZ NZ
2 400.0 1.426 # CZ CM
3 549.0 1.340 # CM CM

Angle Coeffs # harmonic

1 70.0 178.9 # CM CZ NZ
2 70.0 116.8 # CZ CM CZ
3 70.0 121.6 # CM CM CZ

Dihedral Coeffs # opls

1 0.0 0.0 0.0 0.0 # CZ CM CZ NZ
2 0.0 0.0 0.0 0.0 # CM CM CZ NZ
3 0.0 14.0 0.0 0.0 # CZ CM CM CZ

Atoms

1 1 2 -0.091672 5.14976311 13.1321850 6.43358707 # C1
2 1 1 0.404798 4.33631277 13.1525583 7.60271120 # C2
3 1 3 -0.358962 3.69222307 13.1827888 8.55043411 # N1
4 1 1 0.404798 4.63787985 12.4729815 5.27708387 # C3
5 1 3 -0.358962 4.24066782 11.9440117 4.34169388 # N2
6 1 2 -0.091672 6.37383699 13.7124519 6.42243290 # C1B
7 1 1 0.404798 7.18728685 13.6920786 5.25331020 # C2B
8 1 1 0.404798 6.88571882 14.3716555 7.57893705 # C3B
9 1 3 -0.358962 7.83137608 13.6618481 4.30558586 # N1B
10 1 3 -0.358962 7.28293180 14.9006243 8.51432705 # N2B
11 2 2 -0.091672 11.1507587 -14.9965439 -10.1837111 # C1
12 2 1 0.404798 12.2122355 -15.1528921 -9.24680710 # C2
13 2 3 -0.358962 13.0773811 -15.2851858 -8.50656033 # N1
14 2 1 0.404798 10.0520983 -14.1659431 -9.81341457 # C3
15 2 3 -0.358962 9.16151905 -13.5042257 -9.52786160 # N2
16 2 2 -0.091672 11.1790590 -15.6231804 -11.3844271 # C1B
17 2 1 0.404798 10.1175833 -15.4668322 -12.3213301 # C2B
18 2 1 0.404798 12.2777205 -16.4537811 -11.7547216 # C3B
19 2 3 -0.358962 9.25243664 -15.3345366 -13.0615768 # N1B
20 2 3 -0.358962 13.1682987 -17.1154976 -12.0402756 # N2B
21 3 2 -0.091672 -11.2156610 13.4261255 -5.77001476 # C1
22 3 1 0.404798 -10.2496996 14.1038170 -4.97213078 # C2
23 3 3 -0.358962 -9.47239208 14.6348104 -4.31807995 # N1
24 3 1 0.404798 -11.4053459 13.8743219 -7.11061621 # C3
25 3 3 -0.358962 -11.5705433 14.2259188 -8.18840599 # N2
26 3 2 -0.091672 -11.9374514 12.3947124 -5.26961803 # C1B
27 3 1 0.404798 -12.9034119 11.7170210 -6.06750202 # C2B
28 3 1 0.404798 -11.7477655 11.9465160 -3.92901611 # C3B
29 3 3 -0.358962 -13.6807213 11.1860266 -6.72155285 # N1B
30 3 3 -0.358962 -11.5825691 11.5949183 -2.85122705 # N2B
31 4 2 -0.091672 5.46843815 -14.4376106 0.414047003 # C1
32 4 1 0.404798 5.30514717 -15.5388145 -0.474575996 # C2
33 4 3 -0.358962 5.16976213 -16.4359798 -1.17508399 # N1
34 4 1 0.404798 5.45073223 -13.1243792 -0.141994998 # C3
35 4 3 -0.358962 5.44191122 -12.0638924 -0.575388014 # N2
36 4 2 -0.091672 5.64365196 -14.6309767 1.74337006 # C1B
37 4 1 0.404798 5.80694294 -13.5297728 2.63199306 # C2B
38 4 1 0.404798 5.66135788 -15.9442081 2.29941201 # C3B
39 4 3 -0.358962 5.94232798 -12.6326084 3.33250093 # N1B
40 4 3 -0.358962 5.67017889 -17.0046959 2.73280501 # N2B
41 5 2 -0.091672 -12.3804741 -8.64270782 3.42539996E-02 # C1
42 5 1 0.404798 -11.5366726 -9.28443623 0.985647976 # C2
43 5 3 -0.358962 -10.8500862 -9.81100082 1.73749399 # N1
44 5 1 0.404798 -13.0168562 -7.42648315 0.421404004 # C3
45 5 3 -0.358962 -13.5371752 -6.45046186 0.720054984 # N2
46 5 2 -0.091672 -12.5794621 -9.17437935 -1.19575500 # C1B
47 5 1 0.404798 -13.4232626 -8.53265095 -2.14714909 # C2B
48 5 1 0.404798 -11.9430799 -10.3906050 -1.58290505 # C3B
49 5 3 -0.358962 -14.1098509 -8.00608730 -2.89899492 # N1B
50 5 3 -0.358962 -11.4227610 -11.3666258 -1.88155603 # N2B
51 6 2 -0.091672 3.13609004 17.1174431 6.44479084 # C1
52 6 1 0.404798 2.63918400 16.2195988 7.43268013 # C2
53 6 3 -0.358962 2.23161793 15.4866953 8.21414566 # N1
54 6 1 0.404798 4.17384005 18.0187931 6.82520294 # C3
55 6 3 -0.358962 5.00520802 18.7507515 7.11779213 # N2
56 6 2 -0.091672 2.63368797 17.1216145 5.18671083 # C1B
57 6 1 0.404798 3.13059402 18.0194588 4.19882202 # C2B
58 6 1 0.404798 1.59593797 16.2202625 4.80630016 # C3B
59 6 3 -0.358962 3.53816009 18.7523613 3.41735697 # N1B
60 6 3 -0.358962 0.764571011 15.4883060 4.51371098 # N2B
61 7 2 -0.091672 -2.43322611 -16.9520550 15.7651606 # C1
62 7 1 0.404798 -2.04738998 -15.9634438 16.7152901 # C2
63 7 3 -0.358962 -1.73025203 -15.1573114 17.4659672 # N1
64 7 1 0.404798 -3.36996698 -17.9445610 16.1793118 # C3
65 7 3 -0.358962 -4.11921310 -18.7500000 16.4993744 # N2
66 7 2 -0.091672 -1.92079604 -16.9552555 14.5111294 # C1B
67 7 1 0.404798 -2.30663109 -17.9438667 13.5609999 # C2B
68 7 1 0.404798 -0.984054983 -15.9627485 14.0969791 # C3B
69 7 3 -0.358962 -2.62376904 -18.7500000 12.8103218 # N1B
70 7 3 -0.358962 -0.234808996 -15.1573095 13.7769156 # N2B
71 8 2 -0.091672 9.18418407 3.20799303 -10.3489246 # C1
72 8 1 0.404798 10.4285612 3.31092095 -9.66343498 # C2
73 8 3 -0.358962 11.4386053 3.39619207 -9.12819290 # N1
74 8 1 0.404798 7.98870277 3.36034894 -9.58624077 # C3
75 8 3 -0.358962 7.02024603 3.47731495 -8.98544884 # N2
76 8 2 -0.091672 9.13681126 2.96461010 -11.6807327 # C1B
77 8 1 0.404798 7.89243412 2.86168194 -12.3662233 # C2B
78 8 1 0.404798 10.3322906 2.81225395 -12.4434166 # C3B
79 8 3 -0.358962 6.88238907 2.77641106 -12.9014654 # N1B
80 8 3 -0.358962 11.3007479 2.69528794 -13.0442085 # N2B
81 9 2 -0.091672 -15.2590837 -4.17399216 -8.70882702 # C1
82 9 1 0.404798 -15.2202988 -3.63934994 -10.0285311 # C2
83 9 3 -0.358962 -15.1828051 -3.19290805 -11.0836267 # N1
84 9 1 0.404798 -15.3414536 -5.59063387 -8.56595898 # C3
85 9 3 -0.358962 -15.4110022 -6.72680902 -8.43630409 # N2
86 9 2 -0.091672 -15.2275648 -3.36321211 -7.62400723 # C1B
87 9 1 0.404798 -15.2663507 -3.89785290 -6.30430222 # C2B
88 9 1 0.404798 -15.1451960 -1.94656897 -7.76687384 # C3B
89 9 3 -0.358962 -15.3038445 -4.34429502 -5.24920607 # N1B
90 9 3 -0.358962 -15.0756474 -0.810393989 -7.89652920 # N2B
91 10 2 -0.091672 -6.26322317 -16.0920563 3.86519003 # C1
92 10 1 0.404798 -7.63818884 -15.8115730 3.62072897 # C2
93 10 3 -0.358962 -8.73992729 -15.5772514 3.40809703 # N1
94 10 1 0.404798 -5.94892406 -17.0951195 4.82911682 # C3
95 10 3 -0.358962 -5.68179893 -17.8962078 5.60335207 # N2
96 10 2 -0.091672 -5.28498316 -15.4220190 3.20998907 # C1B
97 10 1 0.404798 -3.91001606 -15.7025023 3.45444989 # C2B
98 10 1 0.404798 -5.59928083 -14.4189568 2.24606204 # C3B
99 10 3 -0.358962 -2.80827808 -15.9368238 3.66708207 # N1B
100 10 3 -0.358962 -5.86640596 -13.6178675 1.47182703 # N2B
101 11 2 -0.091672 -4.20783281 -7.76770782 -11.7829456 # C1
102 11 1 0.404798 -4.75186300 -7.28612614 -13.0081301 # C2
103 11 3 -0.358962 -5.20493603 -6.89292622 -13.9848919 # N1
104 11 1 0.404798 -2.80832005 -8.03833580 -11.7360744 # C3
105 11 3 -0.358962 -1.68608606 -8.26312923 -11.6850901 # N2
106 11 2 -0.091672 -4.99517918 -7.97063017 -10.6993866 # C1B
107 11 1 0.404798 -4.45114899 -8.45221233 -9.47420406 # C2B
108 11 1 0.404798 -6.39469194 -7.70000219 -10.7462587 # C3B
109 11 3 -0.358962 -3.99807501 -8.84541225 -8.49744225 # N1B
110 11 3 -0.358962 -7.51692581 -7.47520924 -10.7972431 # N2B
111 12 2 -0.091672 -6.25493097 -16.3239994 -0.996900022 # C1
112 12 1 0.404798 -5.69145584 -15.6412020 -2.11280704 # C2
113 12 3 -0.358962 -5.23228502 -15.1081238 -3.01775789 # N1
114 12 1 0.404798 -7.20606422 -15.6232948 -0.197880000 # C3
115 12 3 -0.358962 -7.96895313 -15.0713482 0.454726011 # N2
116 12 2 -0.091672 -5.89309883 -17.5948982 -0.698435009 # C1B
117 12 1 0.404798 -6.45657396 -18.2776966 0.417472988 # C2B
118 12 1 0.404798 -4.94196510 -18.2956028 -1.49745405 # C3B
119 12 3 -0.358962 -6.91574478 -18.8107738 1.32242298 # N1B
120 12 3 -0.358962 -4.17907619 -18.8475494 -2.15006089 # N2B
121 13 2 -0.091672 2.90665698 -12.6782770 0.897181988 # C1
122 13 1 0.404798 2.92145205 -14.0307684 1.34385204 # C2
123 13 3 -0.358962 2.93063593 -15.1132421 1.72082698 # N1
124 13 1 0.404798 2.71624589 -12.4386320 -0.495795012 # C3
125 13 3 -0.358962 2.56753898 -12.2314930 -1.61272001 # N2
126 13 2 -0.091672 3.07658505 -11.6525078 1.76558101 # C1B
127 13 1 0.404798 3.06178999 -10.3000174 1.31891096 # C2B
128 13 1 0.404798 3.26699591 -11.8921518 3.15855789 # C3B
129 13 3 -0.358962 3.05260611 -9.21754265 0.941936016 # N1B
130 13 3 -0.358962 3.41570306 -12.0992918 4.27548313 # N2B
131 14 2 -0.091672 15.5619593 -12.5471468 14.1609144 # C1
132 14 1 0.404798 14.8565750 -12.2747841 15.3680658 # C2
133 14 3 -0.358962 14.2777166 -12.0439329 16.3301353 # N1
134 14 1 0.404798 16.3941555 -13.7047377 14.1221199 # C3
135 14 3 -0.358962 17.0689831 -14.6295052 14.0779133 # N2
136 14 2 -0.091672 15.4531803 -11.7287769 13.0868425 # C1B
137 14 1 0.404798 16.1585636 -12.0011396 11.8796911 # C2B
138 14 1 0.404798 14.6209841 -10.5711851 13.1256371 # C3B
139 14 3 -0.358962 16.7374229 -12.2319899 10.9176216 # N1B
140 14 3 -0.358962 13.9461546 -9.64641857 13.1698437 # N2B
141 15 2 -0.091672 10.0115671 -17.8673172 11.5121555 # C1
142 15 1 0.404798 10.0847902 -18.3599262 10.1776371 # C2
143 15 3 -0.358962 10.1612501 -18.7499676 9.10247898 # N1
144 15 1 0.404798 8.96854782 -18.3629875 12.3491106 # C3
145 15 3 -0.358962 8.13367176 -18.7499886 13.0315733 # N2
146 15 2 -0.091672 10.8983669 -16.9510880 11.9696493 # C1B
147 15 1 0.404798 10.8251438 -16.4584789 13.3041677 # C2B
148 15 1 0.404798 11.9413862 -16.4554176 11.1326942 # C3B
149 15 3 -0.358962 10.7486839 -16.0684357 14.3793268 # N1B
150 15 3 -0.358962 12.7762623 -16.0684166 10.4502335 # N2B
151 16 2 -0.091672 3.07385206 -14.8926582 -9.26508904 # C1
152 16 1 0.404798 1.70931602 -14.5772724 -9.52497196 # C2
153 16 3 -0.358962 0.607281029 -14.3263817 -9.71606541 # N1
154 16 1 0.404798 4.04398489 -14.5046892 -10.2358589 # C3
155 16 3 -0.358962 4.83368587 -14.2019520 -11.0086870 # N2
156 16 2 -0.091672 3.43814611 -15.5476580 -8.13661289 # C1B
157 16 1 0.404798 4.80268097 -15.8630447 -7.87672997 # C2B
158 16 1 0.404798 2.46801305 -15.9356270 -7.16584301 # C3B
159 16 3 -0.358962 5.90471697 -16.1139336 -7.68563604 # N1B
160 16 3 -0.358962 1.67831194 -16.2383633 -6.39301491 # N2B
161 17 2 -0.091672 -3.32679796 -16.5537453 -5.36465883 # C1
162 17 1 0.404798 -2.92805696 -15.3410912 -4.73264694 # C2
163 17 3 -0.358962 -2.62223601 -14.3567410 -4.23117495 # N1
164 17 1 0.404798 -2.73448205 -17.7685719 -4.90921116 # C3
165 17 3 -0.358962 -2.26427007 -18.7516689 -4.55571318 # N2
166 17 2 -0.091672 -4.23285007 -16.5530529 -6.37176418 # C1B
167 17 1 0.404798 -4.63159084 -17.7657051 -7.00377703 # C2B
168 17 1 0.404798 -4.82516718 -15.3382263 -6.82721186 # C3B
169 17 3 -0.358962 -4.93741322 -18.7500553 -7.50524807 # N1B
170 17 3 -0.358962 -5.29537821 -14.3551283 -7.18070984 # N2B
171 18 2 -0.091672 -18.0044060 -2.54373407 -11.6221828 # C1
172 18 1 0.404798 -18.0151997 -1.33759105 -10.8645124 # C2
173 18 3 -0.358962 -18.0229874 -0.357158005 -10.2706814 # N1
174 18 1 0.404798 -18.4199772 -3.74299598 -10.9716883 # C3
175 18 3 -0.358962 -18.7481384 -4.71454716 -10.4608650 # N2
176 18 2 -0.091672 -17.6041870 -2.55372810 -12.9163694 # C1B
177 18 1 0.404798 -17.5933914 -3.75987101 -13.6740408 # C2B
178 18 1 0.404798 -17.1886158 -1.35446596 -13.5668650 # C3B
179 18 3 -0.358962 -17.5856056 -4.74030495 -14.2678719 # N1B
180 18 3 -0.358962 -16.8604546 -0.382916003 -14.0776882 # N2B
181 19 2 -0.091672 16.0379124 17.4523926 1.82039499 # C1
182 19 1 0.404798 14.9496899 17.4208794 0.901839972 # C2
183 19 3 -0.358962 14.0622129 17.3993912 0.176670998 # N1
184 19 1 0.404798 17.3557072 17.5724850 1.28835702 # C3
185 19 3 -0.358962 18.4200649 17.6652756 0.874740005 # N2
186 19 2 -0.091672 15.8293419 17.3624935 3.15591311 # C1B
187 19 1 0.404798 16.9175644 17.3940067 4.07446718 # C2B
188 19 1 0.404798 14.5115461 17.2424011 3.68794990 # C3B
189 19 3 -0.358962 17.8050404 17.4154949 4.79963589 # N1B
190 19 3 -0.358962 13.4471912 17.1496105 4.10156679 # N2B
191 20 2 -0.091672 -9.45688629 16.6126289 -9.42796612 # C1
192 20 1 0.404798 -10.2575006 16.7087078 -8.25376415 # C2
193 20 3 -0.358962 -10.9169254 16.7819309 -7.31902122 # N1
194 20 1 0.404798 -8.04656887 16.4781322 -9.26367569 # C3
195 20 3 -0.358962 -6.91175079 16.3730812 -9.14666367 # N2
196 20 2 -0.091672 -10.0154047 16.6562576 -10.6613932 # C1B
197 20 1 0.404798 -9.21479034 16.5601788 -11.8355951 # C2B
198 20 1 0.404798 -11.4257212 16.7907524 -10.8256826 # C3B
199 20 3 -0.358962 -8.55536556 16.4869556 -12.7703381 # N1B
200 20 3 -0.358962 -12.5605402 16.8958054 -10.9426947 # N2B
201 21 2 -0.091672 2.26299310 -11.9466991 -5.73164892 # C1
202 21 1 0.404798 3.16487408 -10.9298487 -6.15778303 # C2
203 21 3 -0.358962 3.90449190 -10.1202450 -6.49162579 # N1
204 21 1 0.404798 1.01610601 -12.0604010 -6.41459703 # C3
205 21 3 -0.358962 9.36899986E-03 -12.1610403 -6.95208502 # N2
206 21 2 -0.091672 2.57516098 -12.7738409 -4.70520782 # C1B
207 21 1 0.404798 1.67327905 -13.7906914 -4.27907419 # C2B
208 21 1 0.404798 3.82204700 -12.6601391 -4.02226114 # C3B
209 21 3 -0.358962 0.933660984 -14.6002960 -3.94523191 # N1B
210 21 3 -0.358962 4.82878399 -12.5594997 -3.48477197 # N2B
211 22 2 -0.091672 -15.5047922 -6.73066902 12.8321466 # C1
212 22 1 0.404798 -16.6721115 -7.53842020 12.7143784 # C2
213 22 3 -0.358962 -17.6010876 -8.20366287 12.6227264 # N1
214 22 1 0.404798 -15.6813488 -5.33126783 13.0432777 # C3
215 22 3 -0.358962 -15.8082924 -4.20489407 13.2097397 # N2
216 22 2 -0.091672 -14.2665815 -7.27212906 12.7380686 # C1B
217 22 1 0.404798 -13.0992632 -6.46437788 12.8558378 # C2B
218 22 1 0.404798 -14.0900259 -8.67152977 12.5269384 # C3B
219 22 3 -0.358962 -12.1702871 -5.79913378 12.9474897 # N1B
220 22 3 -0.358962 -13.9630833 -9.79790306 12.3604755 # N2B
221 23 2 -0.091672 2.51758289 14.4804554 -8.39367676 # C1
222 23 1 0.404798 1.38934600 15.0068140 -7.70158482 # C2
223 23 3 -0.358962 0.475739986 15.4129620 -7.14094877 # N1
224 23 1 0.404798 3.61070609 15.3594522 -8.65158939 # C3
225 23 3 -0.358962 4.49468088 16.0552044 -8.86851406 # N2
226 23 2 -0.091672 2.54841590 13.1890478 -8.80173111 # C1B
227 23 1 0.404798 3.67665410 12.6626892 -9.49382401 # C2B
228 23 1 0.404798 1.45529306 12.3100510 -8.54382038 # C3B
229 23 3 -0.358962 4.59026003 12.2565413 -10.0544596 # N1B
230 23 3 -0.358962 0.571317971 11.6142979 -8.32689381 # N2B
231 24 2 -0.091672 -14.5992489 5.63641596 12.5762777 # C1
232 24 1 0.404798 -14.5047493 5.94205523 13.9643049 # C2
233 24 3 -0.358962 -14.4101677 6.18571377 15.0803833 # N1
234 24 1 0.404798 -15.8014135 5.99169111 11.8960934 # C3
235 24 3 -0.358962 -16.7627831 6.26841402 11.3377619 # N2
236 24 2 -0.091672 -13.5839100 5.02033997 11.9245663 # C1B
237 24 1 0.404798 -13.6784096 4.71470022 10.5365391 # C2B
238 24 1 0.404798 -12.3817463 4.66506386 12.6047506 # C3B
239 24 3 -0.358962 -13.7729921 4.47104216 9.42046070 # N1B
240 24 3 -0.358962 -11.4203758 4.38834095 13.1630821 # N2B
241 25 2 -0.091672 10.5710707 -0.899315000 -6.50627518 # C1
242 25 1 0.404798 10.5054522 -2.32110500 -6.44993591 # C2
243 25 3 -0.358962 10.4535866 -3.46441603 -6.38594294 # N1
244 25 1 0.404798 10.1792097 -0.261776000 -7.72038412 # C3
245 25 3 -0.358962 9.87060928 0.263503999 -8.69063473 # N2
246 25 2 -0.091672 10.9999943 -0.175842002 -5.44429398 # C1B
247 25 1 0.404798 11.0656137 1.24594700 -5.50063276 # C2B
248 25 1 0.404798 11.3918552 -0.813381016 -4.23018503 # C3B
249 25 3 -0.358962 11.1174784 2.38925791 -5.56462479 # N1B
250 25 3 -0.358962 11.7004557 -1.33866096 -3.25993395 # N2B
251 26 2 -0.091672 4.44587517 -5.30970287 -10.5200186 # C1
252 26 1 0.404798 4.45186281 -6.02637911 -11.7509956 # C2
253 26 3 -0.358962 4.46814823 -6.61577320 -12.7339993 # N1
254 26 1 0.404798 3.41570401 -4.34476614 -10.3157759 # C3
255 26 3 -0.358962 2.59586811 -3.56414700 -10.1395826 # N2
256 26 2 -0.091672 5.39284897 -5.53073978 -9.57684708 # C1B
257 26 1 0.404798 5.38686180 -4.81406403 -8.34586906 # C2B
258 26 1 0.404798 6.42302084 -6.49567699 -9.78108978 # C3B
259 26 3 -0.358962 5.37057590 -4.22467089 -7.36286592 # N1B
260 26 3 -0.358962 7.24285698 -7.27629614 -9.95728302 # N2B
261 27 2 -0.091672 0.657657981 5.64809704 -16.0014935 # C1
262 27 1 0.404798 1.11451602 4.84877396 -17.0883846 # C2
263 27 3 -0.358962 1.48922002 4.19324589 -17.9508362 # N1
264 27 1 0.404798 -0.329876989 6.64057398 -16.2732239 # C3
265 27 3 -0.358962 -1.12059200 7.44401312 -16.4776611 # N2
266 27 2 -0.091672 1.15108502 5.47757006 -14.7514372 # C1B
267 27 1 0.404798 0.694226980 6.27689409 -13.6645479 # C2B
268 27 1 0.404798 2.13861990 4.48509407 -14.4797087 # C3B
269 27 3 -0.358962 0.319523007 6.93242121 -12.8020954 # N1B
270 27 3 -0.358962 2.92933512 3.68165398 -14.2752705 # N2B
271 28 2 -0.091672 18.7452641 12.7598906 -0.454912990 # C1
272 28 1 0.404798 18.7487316 12.0458164 -1.68741000 # C2
273 28 3 -0.358962 18.7461071 11.4557619 -2.67014790 # N1
274 28 1 0.404798 18.7458076 14.1850157 -0.510499001 # C3
275 28 3 -0.358962 18.7495899 15.3302879 -0.540151000 # N2
276 28 2 -0.091672 18.7500820 12.1071663 0.732150972 # C1B
277 28 1 0.404798 18.7466145 12.8212404 1.96464801 # C2B
278 28 1 0.404798 18.7495384 10.6820412 0.787737012 # C3B
279 28 3 -0.358962 18.7492371 13.4112940 2.94738698 # N1B
280 28 3 -0.358962 18.7457561 9.53676891 0.817389011 # N2B
281 29 2 -0.091672 11.8214645 -6.39739990 -14.1721659 # C1
282 29 1 0.404798 12.3843660 -5.22833586 -13.5844612 # C2
283 29 3 -0.358962 12.8412771 -4.28104210 -13.1285982 # N1
284 29 1 0.404798 10.9762869 -7.21036911 -13.3604832 # C3
285 29 3 -0.358962 10.2981091 -7.87456512 -12.7190323 # N2
286 29 2 -0.091672 12.0868359 -6.73159409 -15.4578886 # C1B
287 29 1 0.404798 11.5239353 -7.90065718 -16.0455933 # C2B
288 29 1 0.404798 12.9320145 -5.91862488 -16.2695713 # C3B
289 29 3 -0.358962 11.0670242 -8.84795094 -16.5014572 # N1B
290 29 3 -0.358962 13.6101923 -5.25442886 -16.9110222 # N2B
291 30 2 -0.091672 -8.95282841 -8.95920563 -13.8971720 # C1
292 30 1 0.404798 -8.82575798 -9.91717243 -12.8506918 # C2
293 30 3 -0.358962 -8.73801613 -10.6801977 -11.9997883 # N1
294 30 1 0.404798 -8.30258846 -9.23555374 -15.1360788 # C3
295 30 3 -0.358962 -7.78264380 -9.44299793 -16.1356621 # N2
296 30 2 -0.091672 -9.66103840 -7.81815720 -13.7193031 # C1B
297 30 1 0.404798 -9.78810787 -6.86019087 -14.7657833 # C2B
298 30 1 0.404798 -10.3112783 -7.54180908 -12.4803953 # C3B
299 30 3 -0.358962 -9.87585068 -6.09716511 -15.6166868 # N1B
300 30 3 -0.358962 -10.8312216 -7.33436489 -11.4808130 # N2B
301 31 2 -0.091672 7.24479485 16.3758411 -2.23272610 # C1
302 31 1 0.404798 7.78346395 17.6905365 -2.13087010 # C2
303 31 3 -0.358962 8.21605682 18.7501564 -2.06750798 # N1
304 31 1 0.404798 6.71104717 15.7810717 -1.05144000 # C3
305 31 3 -0.358962 6.28192616 15.2896881 -0.109665997 # N2
306 31 2 -0.091672 7.24693108 15.7079725 -3.41134310 # C1B
307 31 1 0.404798 6.70826101 14.3932772 -3.51319790 # C2B
308 31 1 0.404798 7.78067923 16.3027420 -4.59262800 # C3B
309 31 3 -0.358962 6.27566814 13.3336573 -3.57656002 # N1B
310 31 3 -0.358962 8.20979881 16.7941265 -5.53440189 # N2B
311 32 2 -0.091672 -0.490424007 11.7763643 -16.0148144 # C1
312 32 1 0.404798 7.06029981E-02 13.0139961 -16.4419937 # C2
313 32 3 -0.358962 0.533065975 14.0100241 -16.7706261 # N1
314 32 1 0.404798 -1.21072495 11.0049057 -16.9740276 # C3
315 32 3 -0.358962 -1.79482603 10.3764009 -17.7332058 # N2
316 32 2 -0.091672 -0.352136999 11.3493223 -14.7366505 # C1B
317 32 1 0.404798 -0.913164020 10.1116896 -14.3094721 # C2B
318 32 1 0.404798 0.368164003 12.1207800 -13.7774363 # C3B
319 32 3 -0.358962 -1.37562704 9.11566162 -13.9808369 # N1B
320 32 3 -0.358962 0.952264011 12.7492847 -13.0182600 # N2B
321 33 2 -0.091672 7.21315289 -0.722087979 10.2924376 # C1
322 33 1 0.404798 6.12178421 4.62389998E-02 10.7899837 # C2
323 33 3 -0.358962 5.25526619 0.673518002 11.2018232 # N1
324 33 1 0.404798 7.03184795 -1.41702795 9.06026077 # C3
325 33 3 -0.358962 6.89908886 -1.98321295 8.07316971 # N2
326 33 2 -0.091672 8.38291168 -0.797793984 10.9714994 # C1B
327 33 1 0.404798 9.47428226 -1.56612003 10.4739532 # C2B
328 33 1 0.404798 8.56421757 -0.102853000 12.2036753 # C3B
329 33 3 -0.358962 10.3408003 -2.19339991 10.0621138 # N1B
330 33 3 -0.358962 8.69697666 0.463331997 13.1907673 # N2B
331 34 2 -0.091672 -13.1424036 -9.29905510 -15.6665840 # C1
332 34 1 0.404798 -13.3524046 -7.98862982 -15.1492329 # C2
333 34 3 -0.358962 -13.5351524 -6.93155909 -14.7453175 # N1
334 34 1 0.404798 -12.3940201 -10.2170820 -14.8720903 # C3
335 34 3 -0.358962 -11.7917004 -10.9639158 -14.2459993 # N2
336 34 2 -0.091672 -13.6300421 -9.65975380 -16.8779049 # C1B
337 34 1 0.404798 -13.4200420 -10.9701786 -17.3952541 # C2B
338 34 1 0.404798 -14.3784266 -8.74172783 -17.6723976 # C3B
339 34 3 -0.358962 -13.2372942 -12.0272503 -17.7991714 # N1B
340 34 3 -0.358962 -14.9807463 -7.99489307 -18.2984886 # N2B
341 35 2 -0.091672 14.6820173 10.7460728 0.586865008 # C1
342 35 1 0.404798 14.2073050 10.9449720 -0.741312027 # C2
343 35 3 -0.358962 13.8134451 11.0907402 -1.80788195 # N1
344 35 1 0.404798 15.4197073 11.8037100 1.19620001 # C3
345 35 3 -0.358962 16.0166683 12.6436749 1.69683695 # N2
346 35 2 -0.091672 14.4482269 9.58667088 1.24741006 # C1B
347 35 1 0.404798 14.9229393 9.38777256 2.57558703 # C2B
348 35 1 0.404798 13.7105360 8.52903461 0.638074994 # C3B
349 35 3 -0.358962 15.3167992 9.24200535 3.64215708 # N1B
350 35 3 -0.358962 13.1135759 7.68906879 0.137437999 # N2B
351 36 2 -0.091672 -6.59166098 14.8854580 7.67883682 # C1
352 36 1 0.404798 -5.57072306 15.2586956 8.59934902 # C2
353 36 3 -0.358962 -4.74429893 15.5731297 9.32880116 # N1
354 36 1 0.404798 -7.62325811 14.0173464 8.14387703 # C3
355 36 3 -0.358962 -8.45644569 13.3177519 8.50291538 # N2
356 36 2 -0.091672 -6.57911396 15.3332109 6.40034103 # C1B
357 36 1 0.404798 -7.60005188 14.9599733 5.47982883 # C2B
358 36 1 0.404798 -5.54751778 16.2013245 5.93530083 # C3B
359 36 3 -0.358962 -8.42647552 14.6455393 4.75037813 # N1B
360 36 3 -0.358962 -4.71432877 16.9009171 5.57626295 # N2B
361 37 2 -0.091672 -2.56666207 -1.42700601 -14.7921543 # C1
362 37 1 0.404798 -2.05127096 -2.44426608 -13.9386196 # C2
363 37 3 -0.358962 -1.63891804 -3.27538395 -13.2654543 # N1
364 37 1 0.404798 -2.32101107 -6.86459988E-02 -14.4335680 # C3
365 37 3 -0.358962 -2.13407707 1.02702904 -14.1559095 # N2
366 37 2 -0.091672 -3.27483892 -1.73877597 -15.9041243 # C1B
367 37 1 0.404798 -3.79023099 -0.721516013 -16.7576561 # C2B
368 37 1 0.404798 -3.52049088 -3.09713697 -16.2627087 # C3B
369 37 3 -0.358962 -4.20258379 0.109601997 -17.4308224 # N1B
370 37 3 -0.358962 -3.70742512 -4.19281101 -16.5403671 # N2B
371 38 2 -0.091672 -6.90881586 11.5215197 -16.7835159 # C1
372 38 1 0.404798 -6.18863392 12.0947676 -17.8705711 # C2
373 38 3 -0.358962 -5.62425709 12.5659704 -18.7499981 # N1
374 38 1 0.404798 -6.16027689 10.8810453 -15.7522278 # C3
375 38 3 -0.358962 -5.57196999 10.3603992 -14.9183435 # N2
376 38 2 -0.091672 -8.26156616 11.5749302 -16.7344532 # C1B
377 38 1 0.404798 -8.98174667 11.0016823 -15.6473970 # C2B
378 38 1 0.404798 -9.01010513 12.2154055 -17.7657394 # C3B
379 38 3 -0.358962 -9.54612541 10.5304804 -14.7679701 # N1B
380 38 3 -0.358962 -9.59841156 12.7360506 -18.5996246 # N2B
381 39 2 -0.091672 16.5791073 -10.3720140 3.21666694 # C1
382 39 1 0.404798 15.3824100 -10.5941086 3.95663810 # C2
383 39 3 -0.358962 14.4094009 -10.7670641 4.53740120 # N1
384 39 1 0.404798 17.7786407 -10.9801540 3.69138694 # C3
385 39 3 -0.358962 18.7503624 -11.4598532 4.06311703 # N2
386 39 2 -0.091672 16.5803185 -9.60105515 2.10275006 # C1B
387 39 1 0.404798 17.7770157 -9.37895966 1.36277902 # C2B
388 39 1 0.404798 15.3807850 -8.99291611 1.62802994 # C3B
389 39 3 -0.358962 18.7500229 -9.20600605 0.782015979 # N1B
390 39 3 -0.358962 14.4090614 -8.51321697 1.25629997 # N2B
391 40 2 -0.091672 2.08430600 4.93087387 7.07607317 # C1
392 40 1 0.404798 0.919496000 5.58033514 7.57645512 # C2
393 40 3 -0.358962 -6.98400009E-03 6.11539888 7.98789883 # N1
394 40 1 0.404798 1.92743003 4.03366709 5.97858381 # C3
395 40 3 -0.358962 1.81566799 3.30770397 5.09936380 # N2
396 40 2 -0.091672 3.30087805 5.15113497 7.62981415 # C1B
397 40 1 0.404798 4.46568823 4.50167513 7.12943220 # C2B
398 40 1 0.404798 3.45775390 6.04834223 8.72730255 # C3B
399 40 3 -0.358962 5.39216805 3.96660995 6.71798801 # N1B
400 40 3 -0.358962 3.56951594 6.77430487 9.60652256 # N2B
401 41 2 -0.091672 -4.13147306 6.22844982 -2.10228610 # C1
402 41 1 0.404798 -4.94712687 7.19373512 -1.44509804 # C2
403 41 3 -0.358962 -5.59768200 7.98350000 -0.928381979 # N1
404 41 1 0.404798 -4.39666080 4.84986687 -1.85077500 # C3
405 41 3 -0.358962 -4.59631109 3.73878694 -1.65537500 # N2
406 41 2 -0.091672 -3.13037300 6.60698414 -2.93277097 # C1B
407 41 1 0.404798 -2.31471896 5.64169788 -3.58995891 # C2B
408 41 1 0.404798 -2.86518502 7.98556614 -3.18428206 # C3B
409 41 3 -0.358962 -1.66416395 4.85193396 -4.10667515 # N1B
410 41 3 -0.358962 -2.66553497 9.09664726 -3.37968111 # N2B
411 42 2 -0.091672 13.8107309 2.96894789 -5.87624502 # C1
412 42 1 0.404798 14.0326414 1.78479302 -5.11631203 # C2
413 42 3 -0.358962 14.2214727 0.824966013 -4.51880121 # N1
414 42 1 0.404798 13.3410311 4.12532806 -5.18614292 # C3
415 42 3 -0.358962 12.9605265 5.06086779 -4.64528990 # N2
416 42 2 -0.091672 14.0302048 2.99424195 -7.21280098 # C1B
417 42 1 0.404798 13.8082952 4.17839813 -7.97273397 # C2B
418 42 1 0.404798 14.4999046 1.83786201 -7.90290213 # C3B
419 42 3 -0.358962 13.6194630 5.13822412 -8.57024479 # N1B
420 42 3 -0.358962 14.8804102 0.902323008 -8.44375515 # N2B
421 43 2 -0.091672 -5.36073303 6.96000385 -14.8100348 # C1
422 43 1 0.404798 -4.12429619 6.32167292 -15.1145372 # C2
423 43 3 -0.358962 -3.12827802 5.80188179 -15.3419371 # N1
424 43 1 0.404798 -6.19222307 7.35582685 -15.8990812 # C3
425 43 3 -0.358962 -6.86865616 7.68217993 -16.7642231 # N2
426 43 2 -0.091672 -5.73159885 7.19181299 -13.5278816 # C1B
427 43 1 0.404798 -6.96803617 7.83014297 -13.2233801 # C2B
428 43 1 0.404798 -4.90010881 6.79598999 -12.4388371 # C3B
429 43 3 -0.358962 -7.96405411 8.34993458 -12.9959803 # N1B
430 43 3 -0.358962 -4.22367620 6.46963692 -11.5736933 # N2B
431 44 2 -0.091672 -7.68594503 -2.43946409 13.3576555 # C1
432 44 1 0.404798 -8.64867020 -1.57649803 12.7598114 # C2
433 44 3 -0.358962 -9.43397617 -0.883448005 12.2940664 # N1
434 44 1 0.404798 -6.37694120 -2.47064495 12.7923183 # C3
435 44 3 -0.358962 -5.32228804 -2.50829601 12.3464127 # N2
436 44 2 -0.091672 -8.00509739 -3.21240902 14.4234371 # C1B
437 44 1 0.404798 -7.04237223 -4.07537508 15.0212822 # C2B
438 44 1 0.404798 -9.31410122 -3.18122911 14.9887753 # C3B
439 44 3 -0.358962 -6.25706577 -4.76842499 15.4870281 # N1B
440 44 3 -0.358962 -10.3687544 -3.14357710 15.4346800 # N2B
441 45 2 -0.091672 -9.33191299 -11.6402102 4.22441578 # C1
442 45 1 0.404798 -8.74928093 -10.6697845 5.08915901 # C2
443 45 3 -0.358962 -8.27436924 -9.87938786 5.77009678 # N1
444 45 1 0.404798 -10.3084040 -12.5222015 4.77453184 # C3
445 45 3 -0.358962 -11.0918055 -13.2394886 5.20385981 # N2
446 45 2 -0.091672 -8.96456146 -11.7288446 2.92349792 # C1B
447 45 1 0.404798 -9.54719353 -12.6992693 2.05875492 # C2B
448 45 1 0.404798 -7.98807096 -10.8468523 2.37338209 # C3B
449 45 3 -0.358962 -10.0221062 -13.4896660 1.37781703 # N1B
450 45 3 -0.358962 -7.20466900 -10.1295652 1.94405401 # N2B
451 46 2 -0.091672 16.8286018 -2.38708711 -3.55983806 # C1
452 46 1 0.404798 17.6574650 -1.64182496 -2.67297006 # C2
453 46 3 -0.358962 18.3100147 -1.04021704 -1.94757795 # N1
454 46 1 0.404798 17.4655552 -3.16880608 -4.56843901 # C3
455 46 3 -0.358962 17.9636497 -3.79858589 -5.38564301 # N2
456 46 2 -0.091672 15.4785452 -2.34827590 -3.45480895 # C1B
457 46 1 0.404798 14.6496811 -3.09353805 -4.34167719 # C2B
458 46 1 0.404798 14.8415909 -1.56655705 -2.44620800 # C3B
459 46 3 -0.358962 13.9971333 -3.69514608 -5.06706905 # N1B
460 46 3 -0.358962 14.3434963 -0.936776996 -1.62900400 # N2B
461 47 2 -0.091672 -7.15464306 -4.63573313 -0.829666018 # C1
462 47 1 0.404798 -8.33888340 -4.04050589 -1.35143900 # C2
463 47 3 -0.358962 -9.28989220 -3.54735303 -1.75926995 # N1
464 47 1 0.404798 -6.52226019 -5.65196323 -1.60519004 # C3
465 47 3 -0.358962 -6.00560093 -6.47201681 -2.21602297 # N2
466 47 2 -0.091672 -6.64958000 -4.25549603 0.368467987 # C1B
467 47 1 0.404798 -5.46534109 -4.85072279 0.890240014 # C2B
468 47 1 0.404798 -7.28196383 -3.23926497 1.14399195 # C3B
469 47 3 -0.358962 -4.51433086 -5.34387493 1.29807198 # N1B
470 47 3 -0.358962 -7.79862309 -2.41921210 1.75482500 # N2B
471 48 2 -0.091672 -10.8333569 -7.40088987 -7.64596224 # C1
472 48 1 0.404798 -9.71612167 -7.97556019 -6.97476387 # C2
473 48 3 -0.358962 -8.80897236 -8.42116356 -6.43396711 # N1
474 48 1 0.404798 -12.0446367 -8.15265369 -7.68747807 # C3
475 48 3 -0.358962 -13.0231371 -8.74691105 -7.73148584 # N2
476 48 2 -0.091672 -10.7463913 -6.18341398 -8.23365307 # C1B
477 48 1 0.404798 -11.8636246 -5.60874510 -8.90485096 # C2B
478 48 1 0.404798 -9.53511047 -5.43165112 -8.19213676 # C3B
479 48 3 -0.358962 -12.7707748 -5.16314077 -9.44564819 # N1B
480 48 3 -0.358962 -8.55661011 -4.83739281 -8.14813042 # N2B
481 49 2 -0.091672 -16.3261166 -15.4244137 -6.36964989 # C1
482 49 1 0.404798 -15.9794044 -16.2309551 -5.24793386 # C2
483 49 3 -0.358962 -15.6974688 -16.8944626 -4.35674477 # N1
484 49 1 0.404798 -16.3322258 -14.0088224 -6.19606113 # C3
485 49 3 -0.358962 -16.3444862 -12.8701792 -6.07003593 # N2
486 49 2 -0.091672 -16.6482277 -15.9834652 -7.56082487 # C1B
487 49 1 0.404798 -16.9949379 -15.1769238 -8.68254089 # C2B
488 49 1 0.404798 -16.6421185 -17.3990574 -7.73441410 # C3B
489 49 3 -0.358962 -17.2768726 -14.5134182 -9.57373047 # N1B
490 49 3 -0.358962 -16.6298542 -18.5377007 -7.86043882 # N2B
491 50 2 -0.091672 12.1343679 7.29681206 -13.2529726 # C1
492 50 1 0.404798 13.5209713 7.54104710 -13.4689512 # C2
493 50 3 -0.358962 14.6377153 7.74623203 -13.6261969 # N1
494 50 1 0.404798 11.4985437 6.30721903 -14.0595131 # C3
495 50 3 -0.358962 10.9740849 5.51731777 -14.7025843 # N2
496 50 2 -0.091672 11.4393158 7.98789978 -12.3178301 # C1B
497 50 1 0.404798 10.0527134 7.74366379 -12.1018534 # C2B
498 50 1 0.404798 12.0751400 8.97749329 -11.5112896 # C3B
499 50 3 -0.358962 8.93596935 7.53847980 -11.9446058 # N1B