LAMMPS data file via write_data, version 29 Sep 2021, timestep = 5000000

1620 atoms
10 atom types
1458 bonds
9 bond types
1620 angles
10 angle types
1944 dihedrals
12 dihedral types

0 31.303 xlo xhi
0 31.303 ylo yhi
0 31.303 zlo zhi

Masses

1 12.01
2 12.01
3 12.01
4 12.01
5 12.01
6 12.01
7 14.01
8 14.01
9 14.01
10 14.01

Bond Coeffs # harmonic

1 400 1.426
2 400 1.426
3 400 1.426
4 400 1.426
5 549 1.34
6 650 1.16
7 650 1.16
8 650 1.16
9 650 1.16

Angle Coeffs # harmonic

1 70 116.8
2 70 116.8
3 70 121.6
4 70 121.6
5 70 121.6
6 70 121.6
7 70 178.9
8 70 178.9
9 70 178.9
10 70 178.9

Dihedral Coeffs # opls

1 0 0 0 0
2 0 0 0 0
3 0 0 0 0
4 0 0 0 0
5 0 0 0 0
6 0 0 0 0
7 0 0 0 0
8 0 0 0 0
9 0 14 0 0
10 0 14 0 0
11 0 14 0 0
12 0 14 0 0

Atoms # full

326 33 2 -0.091672 3.8688655994537795 4.3464144041096215 2.626165996964741 1 1 1
321 33 1 -0.091672 4.583804171656196 5.085938199993202 1.7673485581402628 1 1 1
322 33 3 0.404798 4.067876288123388 6.3182809345610345 1.2903420378048742 1 1 1
324 33 4 0.404798 5.949676657407816 4.855997585899643 1.2881859890520324 1 1 1
328 33 6 0.404798 2.5540743689492036 4.702783556837362 3.060087749040141 1 1 1
1281 129 1 -0.091672 5.587200003604436 7.677879692890266 6.439931364943114 -1 -3 0
330 33 10 -0.358962 1.5193157393192875 5.097864520306522 3.4047406260658675 1 1 1
1289 129 9 -0.358962 6.834656208780106 7.159346408363651 3.2953121456177823 -1 -3 0
1284 129 4 0.404798 5.791618932859363 6.275747785064941 6.289852518052235 -1 -3 0
754 76 4 0.404798 0.8825207587520698 1.6194187214784699 3.479351086364688 -2 1 -1
1285 129 8 -0.358962 5.873531546296688 5.146393944277346 6.037959241358676 -1 -3 0
1102 111 3 0.404798 1.3460360392960091 6.953131902385647 6.5503123724855 0 1 0
1282 129 3 0.404798 5.003147663958073 8.243458710551767 7.590166369654232 -1 -3 0
1324 133 4 0.404798 0.2494737693940866 7.390150889000174 0.5570247484904682 1 2 -1
327 33 5 0.404798 4.516233557198266 3.2756284629224925 3.3102874083512934 1 1 1
193 20 7 -0.358962 9.028535442007577 5.816388541225696 6.099429157056542 1 1 -2
112 12 3 0.404798 10.807314968878165 7.842151641671569 7.814788283631746 0 2 1
323 33 7 -0.358962 3.58550932430056 7.347703982271847 1.0596684571952166 1 1 1
1103 111 7 -0.358962 2.483794861456041 6.8008212467240625 6.38326051419089 0 1 0
198 20 6 0.404798 9.885022026823211 7.756422601656759 3.237473524207322 1 1 -2
297 30 5 0.404798 5.327674377803733 2.1907844437480235 7.706352636782967 0 0 -1
1485 149 8 -0.358962 15.436987498027907 0.10657602279823308 0.09299503010083315 -2 0 -1
1325 133 8 -0.358962 0.13643832165948952 7.7884927764168195 1.6406052613754631 1 2 -1
682 69 3 0.404798 15.609801786564589 3.1907665129092972 0.13757045605322749 0 1 1
1287 129 5 0.404798 6.296578836974933 7.72382686518113 4.154052243102335 -1 -3 0
1288 129 6 0.404798 5.703958079217676 9.74165317501062 5.224932796292117 -1 -3 0
1286 129 2 -0.091672 5.787766528691387 8.345443116909417 5.295496071418603 -1 -3 0
329 33 9 -0.358962 5.1103403049730325 2.3811551557939725 3.749097928374208 1 1 1
569 57 9 -0.358962 2.781073575804429 8.787191823909742 3.6423144359536637 -2 3 0
1108 111 6 0.404798 0.3054060800720927 9.157927668400893 7.5406661761080915 0 1 0
1493 150 7 -0.358962 12.804764087393627 6.566882967079604 5.272106009243888 1 0 -2
1384 139 4 0.404798 10.35335242268869 0.9676246504365249 5.268992899482893 0 -1 2
325 33 8 -0.358962 7.049500449123963 4.747372574729741 0.9357824799842497 1 1 1
681 69 1 -0.091672 15.607805733371448 3.573539415072382 1.5215632459490347 0 1 1
755 76 8 -0.358962 2.0402618476419687 1.6386427623745732 3.5491078561400515 -2 1 -1
299 30 9 -0.358962 6.460296797214696 2.438015134935946 7.746892000512166 0 0 -1
1492 150 3 0.404798 13.647819747307107 7.353848673863395 5.147437933937807 1 0 -2
624 63 4 0.404798 15.65097067657825 5.388203410936544 7.687366298959509 -1 -3 0
567 57 5 0.404798 3.0667184436573782 9.702964119509778 2.9901119278809296 -2 3 0
191 20 1 -0.091672 9.906918252265735 5.409560075543622 3.70261970477807 1 1 -2
684 69 4 0.404798 14.365866961603894 3.839948438597965 2.1470724733192283 0 1 1
1494 150 4 0.404798 14.607971236409904 9.363249567866939 6.1963061414265574 1 0 -2
1496 150 2 -0.091672 15.345162849267792 8.582689931723849 4.041885487043283 1 0 -2
113 12 7 -0.358962 10.272344531757302 8.40493373462817 6.952997737255506 0 2 1
1385 139 8 -0.358962 9.620761155989767 1.8130977822025942 5.575726031036745 0 -1 2
199 20 9 -0.358962 11.109260045135981 5.891916086623964 0.5121344130036727 1 1 -2
685 69 8 -0.358962 13.308560919339731 3.964177902859694 2.6078012119608336 0 1 1
194 20 4 0.404798 10.113153015844382 4.034041596821825 3.3018281821770468 1 1 -2
1491 150 1 -0.091672 14.627458135858484 8.40666321826045 5.15970234697314 1 0 -2
192 20 3 0.404798 9.419011178930273 5.605202158303792 5.027734701229997 1 1 -2
1389 139 9 -0.358962 13.553515947657898 0.7992237382948336 7.082390422559245 0 -1 2
197 20 5 0.404798 10.653123812608346 6.095443435650682 1.559090168880685 1 1 -2
1498 150 6 0.404798 15.2294009820748 7.789720712878166 2.8725689607477793 1 0 -2
200 20 10 -0.358962 9.625927921989325 8.812899389872335 3.6403718238782297 1 1 -2
196 20 2 -0.091672 10.120550794935658 6.412857663754879 2.8404392828875014 1 1 -2
195 20 8 -0.358962 10.146436617529174 3.001862055163293 2.773531301313231 1 1 -2
584 59 4 0.404798 9.645517183743681 10.124221759184943 0.5383102659220649 -1 1 2
1500 150 10 -0.358962 15.10752988673307 7.176528488401086 1.8954595854750278 1 0 -2
1495 150 8 -0.358962 14.525468758053576 10.167014493470658 7.028625360671862 1 0 -2
1387 139 5 0.404798 13.022171388360837 0.26557871618678003 6.200066247947489 0 -1 2
1110 111 10 -0.358962 1.1113447226736803 9.968266657988291 7.739194814907927 0 1 0
589 59 9 -0.358962 6.88378188427377 7.7748914083457725 0.03146359950336475 -1 1 2
31 4 1 -0.091672 1.1773465668609093 8.995341380350967 12.795747653405416 1 2 0
535 54 8 -0.358962 3.238773111395367 3.186490965194807 11.895336850260973 -1 -1 1
533 54 7 -0.358962 2.7434715265811027 7.001690362124439 10.01603280864015 -1 -1 1
534 54 4 0.404798 3.8411698839550525 4.123177051171403 11.570779766212823 -1 -1 1
532 54 3 0.404798 3.4230184955823093 6.235429363361864 10.560697841573232 -1 -1 1
345 35 8 -0.358962 6.06643359075576 1.6010494798340993 14.339590571793057 2 0 0
531 54 1 -0.091672 4.354350101824277 5.40952379592593 11.235110285686794 -1 -1 1
537 54 5 0.404798 6.661425060408601 5.042227851031372 11.906114177782937 -1 -1 1
1419 142 9 -0.358962 10.399281860628305 10.19916842905952 12.727894404711789 0 2 3
37 4 5 0.404798 0.12340755390221518 8.270406715195096 14.877595838528238 1 2 0
536 54 2 -0.091672 5.591898340642846 5.857746645915468 11.486447972853751 -1 -1 1
540 54 10 -0.358962 6.2228693432474635 8.242622387722902 10.844598212450178 -1 -1 1
538 54 6 0.404798 5.9719355171832085 7.16248510029604 11.185091464885375 -1 -1 1
302 31 3 0.404798 0.1911753452191577 4.579366381824781 12.857452086742967 0 0 -1
36 4 2 -0.091672 1.2823196008982842 8.778911333729791 14.113980825867554 1 2 0
994 100 4 0.404798 15.050367531855123 0.3530509897280955 12.047239717152609 0 -1 -1
344 35 4 0.404798 5.294311031507657 0.7354634279151502 14.353285099504655 2 0 0
346 35 2 -0.091672 3.040667865557941 0.1096784478196467 14.89172216890458 2 0 0
837 84 5 0.404798 11.207394021741457 7.434317187632397 14.508169624079986 -2 1 -1
1283 129 7 -0.358962 4.497609739084175 8.759883414929265 8.497545523248325 -1 -3 0
349 35 9 -0.358962 2.0908616888404374 2.462233432071205 15.325884019182775 2 0 0
292 30 3 0.404798 2.05488994890403 0.6551317608961753 8.219155720763114 0 0 -1
347 35 5 0.404798 2.5556076571838178 1.4036525560189477 15.230922383684621 2 0 0
787 79 5 0.404798 7.5153991574619985 0.8124884997813175 11.225807822951584 1 -1 -1
32 4 3 0.404798 2.2897955939066534 9.406434237845495 12.103618691909094 1 2 0
789 79 9 -0.358962 6.48114820881107 1.1867652428006619 10.857240470770359 1 -1 -1
831 84 1 -0.091672 9.714583406205788 5.685227430648635 15.415831918397522 -2 1 -1
539 54 9 -0.358962 7.587883914827852 4.476610740549939 12.315200079610802 -1 -1 1
623 63 7 -0.358962 12.745753554339325 3.635481110331222 8.014963412468338 -1 -3 0
33 4 7 -0.358962 3.131623587175416 9.817066020188102 11.419288969630825 1 2 0
832 84 3 0.404798 8.452596782058343 5.07940531787247 15.401342926112187 -2 1 -1
38 4 6 0.404798 2.519779269181099 8.9717457922454 14.825908889217716 1 2 0
1235 124 8 -0.358962 4.314946452289204 4.726253477446055 14.635875558255966 1 -1 1
786 79 2 -0.091672 8.863936813715592 0.3889275765306071 11.544113299040395 1 -1 -1
270 27 10 -0.358962 15.393914960856247 3.1063541731106787 15.400597832592897 2 2 0
781 79 1 -0.091672 9.78188776760088 0.5913194242151789 10.58912451342376 1 -1 -1
782 79 3 0.404798 11.149624488590359 0.15774283549488782 10.63380258255139 1 -1 -1
115 12 8 -0.358962 13.7534523635733 7.474042475834996 9.65705028512284 0 2 1
992 100 3 0.404798 14.935356663165676 2.7188470002798626 11.621083865017123 0 -1 -1
839 84 9 -0.358962 12.232757787796945 7.965957200128834 14.400521844849962 -2 1 -1
993 100 7 -0.358962 15.26031404225627 3.6843557110576053 11.06629054761269 0 -1 -1
159 16 9 -0.358962 14.10345749509809 9.871473967492639 11.183869469994399 -1 2 3
621 63 1 -0.091672 15.30883385996696 4.06485299082785 7.990065823739105 -1 -3 0
111 12 1 -0.091672 11.266728744980297 7.229280342048618 9.006785104642388 0 2 1
785 79 8 -0.358962 9.266549784475329 1.6977466360499092 8.339359546010813 1 -1 -1
784 79 4 0.404798 9.489119101428642 1.1587734213559968 9.342141063468592 1 -1 -1
997 100 5 0.404798 13.049370629870099 0.5941959161768603 14.04198096822819 0 -1 -1
120 12 10 -0.358962 8.136010090237583 5.686134313760049 9.121230848042371 0 2 1
118 12 6 0.404798 9.24201442780211 5.911847127224568 9.388453846037317 0 2 1
622 63 3 0.404798 13.88062404547433 3.8756238104767577 8.014291263695037 -1 -3 0
157 16 5 0.404798 14.643623905950069 9.190518303484703 11.952061914471354 -1 2 3
156 16 2 -0.091672 15.396016283444448 8.449406748124218 12.966419955766519 -1 2 3
991 100 1 -0.091672 14.505722654718697 1.5984304084067638 12.4184362526612 0 -1 -1
291 30 1 -0.091672 3.438618705662214 0.7251283762239167 8.071580654120373 0 0 -1
158 16 6 0.404798 15.185478557583657 7.052976980453787 12.995628476522338 -1 2 3
1000 100 10 -0.358962 12.333925594475515 3.876841485945587 14.12999911140773 0 -1 -1
117 12 5 0.404798 11.150689610566925 5.801685832342185 10.92674225022754 0 2 1
119 12 9 -0.358962 11.618145186016095 5.381859371376426 11.90184789851641 0 2 1
40 4 10 -0.358962 3.48995286554515 9.184399062338601 15.425193277870584 1 2 0
836 84 2 -0.091672 9.938333433430056 6.71220153918056 14.584651972314713 -2 1 -1
998 100 6 0.404798 12.875569992643761 2.9015361666962525 13.81219275925111 0 -1 -1
303 31 7 -0.358962 1.0168115989031907 5.267937192809987 13.293106782833657 0 0 -1
996 100 2 -0.091672 13.581693788755949 1.749320194130739 13.37708265575954 0 -1 -1
838 84 6 0.404798 8.925606647130584 7.271231554767422 13.738374068410637 -2 1 -1
116 12 2 -0.091672 10.55557627769528 6.353865264965706 9.73032543420853 0 2 1
840 84 10 -0.358962 8.097286314692509 7.758403660075206 13.088644304757475 -2 1 -1
160 16 10 -0.358962 14.989216002602674 5.909795799558785 13.010386362380055 -1 2 3
114 12 4 0.404798 12.620297123861537 7.4486710398639575 9.410239649069704 0 2 1
293 30 7 -0.358962 0.8982679975747673 0.5999775625094984 8.288319826247164 0 0 -1
630 63 10 -0.358962 15.634789226852861 0.743859908218277 8.88671458735751 -1 -3 0
833 84 7 -0.358962 7.353243586830356 4.709431623090993 15.389425996858488 -2 1 -1
296 30 2 -0.091672 3.9572027812137893 1.9381441045464116 7.8364989683125925 0 0 -1
298 30 6 0.404798 3.154628836316295 3.0799711999517783 7.96212816583976 0 0 -1
300 30 10 -0.358962 2.6209603592241835 4.101223415610472 8.095701605896794 0 0 -1
578 58 6 0.404798 3.04862003648331 1.0743353579578911 19.701858856403636 1 3 3
415 42 8 -0.358962 6.4002965771978815 5.35696418487005 18.767546260454438 1 -1 2
1236 124 2 -0.091672 3.4450836797899 4.995546820085678 18.02507580972758 1 -1 1
580 58 10 -0.358962 2.218314049122396 1.5340575835843344 19.034890009634054 1 3 3
1238 124 6 0.404798 3.30443125904348 4.578510296334866 19.386957088079043 1 -1 1
1240 124 10 -0.358962 3.1959402716204175 4.120115561792707 20.4470061294314 1 -1 1
1232 124 3 0.404798 4.501422332379726 2.8673208058139226 17.53800663971815 1 -1 1
1233 124 7 -0.358962 4.9290272543481635 1.811919524441564 17.759099748750902 1 -1 1
576 58 2 -0.091672 4.03383324549244 0.6367690895443765 20.603987410136146 1 3 3
1231 124 1 -0.091672 4.0599769611627865 4.19188869735559 17.146645464464797 1 -1 1
1111 112 1 -0.091672 10.251180095823058 9.926429968599287 21.309471333419822 1 0 0
1237 124 5 0.404798 3.02532753311354 6.275301839858261 17.69594143154503 1 -1 1
416 42 2 -0.091672 6.3529668924628435 8.760519398809347 18.105550022942374 1 -1 2
1239 124 9 -0.358962 2.634507026820062 7.333291171948646 17.42479957858282 1 -1 1
414 42 4 0.404798 6.432491753507763 6.4976660557750625 18.975783398370332 1 -1 2
411 42 1 -0.091672 6.434130316925838 7.913562339615361 19.140767989127784 1 -1 2
412 42 3 0.404798 6.423644064344743 8.42214547773454 20.49346053483165 1 -1 2
413 42 7 -0.358962 6.464027046173419 8.751096574945349 21.605108133799906 1 -1 2
418 42 6 0.404798 6.507388507436331 10.164454221893582 18.248279520498443 1 -1 2
530 53 10 -0.358962 7.29734594692961 4.185695656140914 22.357139142216113 1 1 0
577 58 5 0.404798 4.356682733508308 1.4862710338340277 21.63548514116278 1 3 3
652 66 3 0.404798 1.2527732560509315 10.08300019068206 18.75146551705753 0 -2 0
417 42 5 0.404798 6.258438739014089 8.155646414911377 16.783297939327273 1 -1 2
1472 148 3 0.404798 0.2299726737546683 3.6017929091922958 21.078231204620206 -1 1 2
1471 148 1 -0.091672 0.1876387605115491 3.1840640639570554 22.477804843442385 -1 1 2
1118 112 6 0.404798 10.843126576392617 9.696338927270974 18.994912906472457 1 0 0
1519 152 9 -0.358962 0.438637430869041 4.906692295919356 16.920185643137504 -2 1 -1
489 49 9 -0.358962 14.397737372223036 9.797066413989581 16.843682384425243 -1 -2 0
1473 148 7 -0.358962 0.24133026127675916 3.9493239560300677 19.971572640907446 -1 1 2
1114 112 4 0.404798 9.539987991548093 9.410099417520428 22.38766146748234 1 0 0
941 95 1 -0.091672 14.583900831845925 6.957251061226899 23.29025865583289 3 3 2
579 58 9 -0.358962 4.61885143875566 2.202589902357894 22.509415826491797 1 3 3
1480 148 10 -0.358962 2.7010302814345426 5.6259777538826645 23.146561469380885 -1 1 2
266 27 2 -0.091672 15.409335004450158 0.6541640672732817 16.324794888274972 2 2 0
817 82 5 0.404798 14.131894570130546 4.244232747975408 19.47600229228544 1 2 -2
528 53 6 0.404798 8.282955390758767 4.532146473396988 22.861267948100274 1 1 0
946 95 2 -0.091672 14.972584191041834 6.882722930064682 22.01003570503899 3 3 2
819 82 9 -0.358962 13.109387142773679 4.492711262457166 19.964199986372268 1 2 -2
1234 124 4 0.404798 4.2356603473373955 4.530339059986372 15.77645929224093 1 -1 1
950 95 10 -0.358962 13.593993374789063 8.126444356785973 20.233488037427378 3 3 2
501 51 1 -0.091672 8.623536761700421 1.7765837201584835 18.270661980975163 2 1 -1
809 81 9 -0.358962 14.831643925422703 3.517416973862009 22.691884394808774 0 -2 -3
510 51 10 -0.358962 7.508691963096707 1.081455730420641 21.560987352798954 2 1 -1
807 81 5 0.404798 15.2682084164139 2.525187714014397 23.10479181836905 0 -2 -3
508 51 6 0.404798 7.765463471209661 0.9236858223143326 20.440819040342458 2 1 -1
505 51 8 -0.358962 9.099959906581939 1.5935125415474738 15.771510174340829 2 1 -1
816 82 2 -0.091672 15.443671356191961 4.098121180128468 18.914878352361356 1 2 -2
815 82 8 -0.358962 14.598050136875722 6.860648807933442 16.994928269700484 1 2 -2
263 27 7 -0.358962 12.36301166075498 1.5914484882626978 17.75596674637534 2 2 0
527 53 5 0.404798 10.55057027772389 5.422255678638025 22.626865926488946 1 1 0
814 82 4 0.404798 15.219466806061897 6.006281120618894 17.473986904857004 1 2 -2
948 95 6 0.404798 14.170425639035287 7.470982357642221 20.99748764671723 3 3 2
502 51 3 0.404798 9.21172056841588 2.79021141862669 19.000376489492794 2 1 -1
1119 112 9 -0.358962 9.23558698546699 6.9056598602188 19.942894159014838 1 0 0
506 51 2 -0.091672 7.969876482804209 0.8596415743432871 18.99698514636879 2 1 -1
835 84 8 -0.358962 11.48363080396188 4.767354640693823 17.041084343283117 -2 1 -1
529 53 9 -0.358962 11.45175213691126 5.8070082270776044 22.0060304172449 1 1 0
503 51 7 -0.358962 9.792725597399597 3.563135626456489 19.641173901460604 2 1 -1
834 84 4 0.404798 10.704235210542752 5.165251467210964 16.279624807839358 -2 1 -1
1117 112 5 0.404798 9.761768357766872 7.928640649999037 20.092036587285964 1 0 0
504 51 4 0.404798 9.01007401323092 1.6716216129681245 16.925381699393593 2 1 -1
1116 112 2 -0.091672 10.348089578552962 9.187093992057887 20.196102183066476 1 0 0
745 75 8 -0.358962 10.597168189226116 1.9322899378098168 23.443450946195604 2 3 2
262 27 3 0.404798 13.307754128109467 0.9755556160768485 17.484419994689546 2 2 0
1478 148 6 0.404798 2.0004114499736416 4.703165847491184 23.202699097085507 -1 1 2
1120 112 10 -0.358962 11.348206922212139 9.959840258959096 17.9844373294695 1 0 0
261 27 1 -0.091672 14.438383332901932 0.15228283347003568 17.100016193125935 2 2 0
1476 148 2 -0.091672 0.9739224785025203 3.699636128918581 23.432552641951595 -1 1 2
801 81 1 -0.091672 15.160477183508819 0.1064088303951346 23.27544635452708 0 -2 -3
1115 112 8 -0.358962 9.005145328839511 9.002042309287768 23.33266555157003 1 0 0
268 27 6 0.404798 15.412786338505118 2.0233232761673907 15.815673664418092 2 2 0
419 42 9 -0.358962 6.0599136379156375 7.580277792517315 15.795806809101467 1 -1 2
613 62 7 -0.358962 5.3999652834256215 8.996823146427714 28.69978023789915 2 1 2
612 62 3 0.404798 5.206397511072459 7.883351973150697 28.43841179545462 2 1 2
611 62 1 -0.091672 4.953825118144812 6.592356137537188 27.956337379533355 2 1 2
618 62 6 0.404798 4.529658676396819 7.19333805423565 25.643901276338287 2 1 2
620 62 10 -0.358962 4.333047780270918 7.852070873272491 24.709548438294267 2 1 2
1298 130 6 0.404798 0.41888713685738077 9.526775064914961 24.143119533402917 0 0 0
1327 133 5 0.404798 2.1662525677676743 8.728349566851621 30.098624939561134 1 2 -2
616 62 2 -0.091672 4.6187536670866205 6.287492917125788 26.695232491193824 2 1 2
614 62 4 0.404798 4.959573424642432 5.631971880055057 28.984908944315848 2 1 2
1132 114 3 0.404798 5.581681731294565 0.7390549820088768 26.080044140748203 2 1 0
794 80 4 0.404798 7.056561193007667 9.628099994688938 26.073331941625952 0 0 -1
615 62 8 -0.358962 5.065579989802306 4.902714447403624 29.88075837565817 2 1 2
1326 133 2 -0.091672 1.2093554600203806 7.796035068302854 29.69441603455828 1 2 -2
1479 148 9 -0.358962 0.759412789798576 2.8443335372848866 25.860062732579685 -1 1 2
1477 148 5 0.404798 0.8379600318163438 3.264798757305825 24.781805189655106 -1 1 2
1328 133 6 0.404798 1.4249708580898695 7.521036591668296 28.313141014536882 1 2 -2
1133 114 7 -0.358962 6.525234336889476 1.4114515257577578 26.13653633042624 2 1 0
943 95 7 -0.358962 12.50870444618948 8.311787965587417 23.964327999226352 3 3 2
357 36 5 0.404798 11.802664233185357 9.459140191042712 27.18482104500047 -1 0 1
1330 133 10 -0.358962 1.57242785248676 7.3928470823592685 27.169714635643395 1 2 -2
617 62 5 0.404798 4.508163390770879 4.889784909132296 26.372253359668033 2 1 2
619 62 9 -0.358962 4.342516590110723 3.8032053914674724 26.00143522908211 2 1 2
1329 133 9 -0.358962 2.930702455676129 9.529878043720997 30.443252953509155 1 2 -2
1135 114 8 -0.358962 2.8002802289989446 0.7369755866217526 24.180452690185678 2 1 0
1070 107 10 -0.358962 1.8959282930558456 3.765102767386381 28.73632093097449 0 2 -3
1068 107 6 0.404798 1.4916282862787855 2.8977359226936166 29.39192466862673 0 2 -3
1321 133 1 -0.091672 0.3725523761623744 7.104935472809022 30.48038164921028 1 2 -2
1066 107 2 -0.091672 1.0832720155482527 1.9270293438786101 30.316565956524716 0 2 -3
865 87 8 -0.358962 8.053779999785924 2.1108607094754324 29.584640953278686 0 -1 -2
587 59 5 0.404798 7.956467726799938 7.809214709268427 30.89427387470552 -1 1 1
1061 107 1 -0.091672 1.8660053645269477 0.8641663346602942 30.54732714022667 0 2 -3
795 80 8 -0.358962 7.35007867024759 8.618460455906105 26.56330693279838 0 0 -1
1369 137 9 -0.358962 10.931650757859105 4.0260822334163455 29.517816873655697 -1 2 -1
524 53 4 0.404798 10.822393430418776 5.576880645018584 25.388873162081488 1 1 0
806 81 2 -0.091672 15.590501977276285 1.2815449090316007 23.754751966503548 0 -2 -3
582 59 3 0.404798 11.438013260968747 9.126513752690641 30.497474240877303 -1 1 1
1300 130 10 -0.358962 1.1585554011145536 8.864501126533787 24.74302293330602 0 0 0
864 87 4 0.404798 9.014874745406964 1.5408330671828223 29.896033593197203 0 -1 -2
1370 137 10 -0.358962 14.567403322532643 6.3266139577111 30.392823016519863 -1 2 -1
942 95 3 0.404798 13.449177207997927 7.693581497245418 23.683380062902145 3 3 2
526 53 2 -0.091672 9.466663432333926 5.031546371247738 23.492134417101283 1 1 0
749 75 9 -0.358962 9.498762978239323 0.5751370567122811 27.031315582228487 2 3 2
861 87 1 -0.091672 10.120948799460463 0.7280032021767755 30.31324432213546 0 -1 -2
522 53 3 0.404798 8.578659450302254 4.836126715644579 25.803313196200595 1 1 0
360 36 10 -0.358962 14.434518111796592 7.353721476908801 26.99694488934804 -1 0 1
356 36 2 -0.091672 13.185291384975551 9.625646320844123 27.023196203472615 -1 0 1
523 53 7 -0.358962 7.749938238782328 4.714361632922844 26.60580581975009 1 1 0
1368 137 6 0.404798 14.062609919369438 5.522970211372624 29.72578452542765 -1 2 -1
1362 137 3 0.404798 15.531278240735846 4.203956157179495 27.83703952239752 -1 2 -1
358 36 6 0.404798 13.930021143029089 8.398073245021799 26.976642379997024 -1 0 1
744 75 4 0.404798 10.175744707584192 0.8825524498445245 23.700459612352 2 3 2
586 59 2 -0.091672 9.299733439709465 8.09355028845787 30.36823334693605 -1 1 1
863 87 7 -0.358962 12.490871051805797 1.6318690813795107 29.874086400323293 0 -1 -2
590 59 10 -0.358962 10.02117244954325 6.407084118809581 28.561764490532926 -1 1 1
588 59 6 0.404798 9.742162437998942 7.224880378158569 29.33569129035905 -1 1 1
862 87 3 0.404798 11.406984030315165 1.263487879684604 30.061394206975976 0 -1 -2
1364 137 4 0.404798 13.4483355879708 3.179522271293968 27.033580981175565 -1 2 -1
521 53 1 -0.091672 9.594810079272623 5.071591836785473 24.825391630464026 1 1 0
1367 137 5 0.404798 12.02598251801394 4.347020205630011 29.305598081074805 -1 2 -1
1366 137 2 -0.091672 13.434035554367968 4.5839007055920185 29.02030015673335 -1 2 -1
1365 137 8 -0.358962 13.072836624137068 2.503028598932075 26.16931433428819 -1 2 -1
1062 107 3 0.404798 3.141282888557669 0.7381954569133784 29.90700683952753 0 2 -3
525 53 8 -0.358962 11.779264970188418 6.039109871798781 25.853997868077062 1 1 0
1361 137 1 -0.091672 14.080893688939309 3.996378562709 28.00442994768253 -1 2 -1
581 59 1 -0.091672 10.059416561529998 9.06230121458611 30.897386629607198 -1 1 1
1134 114 4 0.404798 3.519375513362756 0.3573139938807483 25.007712651220206 2 1 0
583 59 7 -0.358962 12.515185556158311 9.148165970615935 30.06755444916149 -1 1 1
944 95 4 0.404798 15.34668442031953 6.185269395561094 24.175429704783376 3 3 2
359 36 9 -0.358962 10.666584617282929 9.227119637560023 27.217829593682602 -1 0 1
1063 107 7 -0.358962 4.179497806493599 0.5097255868135596 29.44277489040081 0 2 -3
137 14 5 0.404798 3.966891127609333 16.991465125861758 2.97772357041237 4 -2 1
139 14 9 -0.358962 3.758768714115609 16.134031778795386 3.730779421915962 4 -2 1
561 57 1 -0.091672 2.834473743370062 12.023816896637635 2.5597973670942307 -2 3 0
564 57 4 0.404798 1.7873150648935439 12.123790153060948 3.5544552267093197 -2 3 0
565 57 8 -0.358962 0.8863729991373883 12.198270264199756 4.281336307673101 -2 3 0
138 14 6 0.404798 2.981191507357214 18.42418711251998 1.3367454609125604 4 -2 1
566 57 2 -0.091672 3.3899843281125546 10.856703836487329 2.206448971170727 -2 3 0
1038 104 6 0.404798 5.986883891434389 18.81734687186608 6.639916369039854 -1 -1 -1
136 14 2 -0.091672 4.151996967764374 18.001390942605333 1.9697694358549238 4 -2 1
1586 159 2 -0.091672 3.764272605604299 15.000149857306237 7.409013558502448 1 -1 -1
135 14 8 -0.358962 7.4396162238341805 17.46662410377858 3.0906561289918946 4 -2 1
851 86 1 -0.091672 0.7220102715799958 19.559464638469297 5.76587676642637 -1 1 0
447 45 5 0.404798 11.33853686126382 11.634817216192218 4.163228909218074 -1 0 2
855 86 8 -0.358962 3.039828933087355 18.968827577516105 4.733979437647757 -1 1 0
140 14 10 -0.358962 2.037186369510355 18.739229573636614 0.7407567472945713 4 -2 1
585 59 8 -0.358962 9.330407697440497 10.987139679059217 1.2466030532626906 -1 1 2
134 14 4 0.404798 6.495659742805276 17.843672097198766 2.5317456089060895 4 -2 1
131 14 1 -0.091672 5.418750917329517 18.360053160437282 1.720178083935999 4 -2 1
562 57 3 0.404798 3.2572559233174028 13.214305262899874 1.8501999986970117 -2 3 0
132 14 3 0.404798 5.823207067924421 19.32459634482283 0.7900586212489941 4 -2 1
563 57 7 -0.358962 3.652576605562085 14.16904145341031 1.3231322951635838 -2 3 0
1590 159 10 -0.358962 2.5331444196683504 17.216869918550305 7.175702347696328 1 -1 -1
568 57 6 0.404798 4.506863222847354 10.71466203922285 1.3398482302237624 -2 3 0
1290 129 10 -0.358962 5.6962250528534915 10.898066950696359 5.1341177306996 -1 -3 0
854 86 4 0.404798 1.9834014005147151 19.22045956392903 5.141707547046777 -1 1 0
449 45 9 -0.358962 11.8178252208375 11.015899355980714 3.307177889028522 -1 0 2
1040 104 10 -0.358962 5.789084386203627 17.994373294731453 5.846701488801183 -1 -1 -1
1428 143 6 0.404798 11.942832526596028 20.585343692093996 1.6849486650380336 0 -2 0
1588 159 6 0.404798 3.0870542468643087 16.203023666640874 7.280103883809211 1 -1 -1
1587 159 5 0.404798 5.173843065267282 15.021421053827428 7.393633935632756 1 -1 -1
516 52 2 -0.091672 7.680777334778744 15.06296436276632 0.6819184734191336 -1 0 1
1584 159 4 0.404798 3.721365899939153 12.583548684924544 7.274901735839552 1 -1 -1
1373 138 7 -0.358962 13.500077072908256 14.38529827569418 2.00586990808609 3 2 0
1047 105 5 0.404798 15.241351820711156 16.795051066334924 5.745861233639661 0 0 -1
237 24 5 0.404798 11.8508007565218 19.06144723488899 7.184804821013249 -3 1 -2
1049 105 9 -0.358962 14.17807693684516 17.247544036533284 5.6443889089766985 0 0 -1
520 52 10 -0.358962 6.301975440809727 13.929700689940372 2.555322580589284 -1 0 1
1422 143 3 0.404798 9.896352748768964 18.8063030484694 2.1042347972207445 0 -2 0
1423 143 7 -0.358962 8.977993579974402 18.927178935348856 1.4059472808555726 0 -2 0
445 45 8 -0.358962 14.097877142067908 13.630699350535568 4.997126460732121 -1 0 2
852 86 3 0.404798 0.7138858543676259 19.563979633604067 7.174982149889451 -1 1 0
1427 143 5 0.404798 13.1121386130397 19.705298378289417 3.625881159928396 0 -2 0
1425 143 8 -0.358962 11.204365170936795 16.929414728897495 4.71204883278965 0 -2 0
442 45 3 0.404798 11.296572841670129 14.075068239358174 6.907840440029729 -1 0 2
444 45 4 0.404798 13.019661121117016 13.466371256942358 5.392153662032753 -1 0 2
441 45 1 -0.091672 11.708975615363245 13.265258106469503 5.809899362189865 -1 0 2
239 24 9 -0.358962 11.784787252469021 19.44170477658073 6.090891470344729 -3 1 -2
1421 143 1 -0.091672 11.030826939341672 18.73922164392947 2.8752750533150246 0 -2 0
511 52 1 -0.091672 9.019185938531546 15.073222246241347 0.7463947026455363 -1 0 1
512 52 3 0.404798 9.782955458064643 14.418716420352132 1.7750024199306242 -1 0 1
109 11 9 -0.358962 0.46184386327884397 16.005592701432736 1.0417449323042183 1 1 1
1374 138 4 0.404798 13.314237707229914 17.317822613084967 0.43932270338588 3 2 0
1424 143 4 0.404798 11.03715218189322 17.698411146906654 3.859825666830165 0 -2 0
513 52 7 -0.358962 10.444821012387251 14.073983973545666 2.66308660735892 -1 0 1
1085 109 8 -0.358962 14.979818283039032 10.653550144116656 1.1548821183870717 -1 2 0
1429 143 9 -0.358962 13.997633211942684 19.732984318283496 4.374702100670681 0 -2 0
518 52 6 0.404798 6.868237804070448 14.399584561782978 1.6585750790344156 -1 0 1
448 45 6 0.404798 9.59936125660243 12.112932157896134 5.713429229521552 -1 0 2
450 45 10 -0.358962 8.524527144987143 11.949001647913438 6.117729142600103 -1 0 2
446 45 2 -0.091672 10.867077088982319 12.413710230190482 5.208506740697354 -1 0 2
1589 159 9 -0.358962 6.30752044862427 14.948705560729504 7.158925507323337 1 -1 -1
1426 143 2 -0.091672 12.040092985175551 19.595292528908598 2.6652162808234814 0 -2 0
1036 104 2 -0.091672 6.226044630806886 19.746900165929024 7.665526413702163 -1 -1 -1
570 57 10 -0.358962 5.448396926590662 10.613786405427803 0.6698195818633118 -2 3 0
1084 109 4 0.404798 15.190521453502596 11.54177660047242 0.4391601499443056 -1 2 0
1581 159 1 -0.091672 3.0751370557265885 13.861577181570889 7.252986470229117 1 -1 -1
1583 159 7 -0.358962 0.5011436771136226 13.847850422125427 7.067494025963376 1 -1 -1
1371 138 1 -0.091672 14.252825007440407 16.693161196689505 1.3191370798085003 3 2 0
235 24 8 -0.358962 8.960614186554313 17.161614680651603 7.088073253492795 -3 1 -2
1582 159 3 0.404798 1.6575805350108492 13.783033877424712 7.131154103403905 1 -1 -1
1585 159 8 -0.358962 4.178121929837075 11.534244867688745 7.4644681513575035 1 -1 -1
1376 138 2 -0.091672 15.356907228313943 17.30394002626586 1.7703040896289448 3 2 0
1372 138 3 0.404798 13.941009399048912 15.421959096606992 1.7292600285447242 3 2 0
133 14 7 -0.358962 6.206204570795282 20.116875254873015 0.034276218142128556 4 -2 1
1156 116 2 -0.091672 6.003291542073277 15.270231352647338 13.278814118676106 2 2 0
1155 116 8 -0.358962 7.546097290194254 17.483476801296817 11.051053055736016 2 2 0
1153 116 7 -0.358962 3.7896036062687912 15.581774018876201 10.576167865278322 2 2 0
1152 116 3 0.404798 4.739122315451458 15.571776873106296 11.242436788381777 2 2 0
1151 116 1 -0.091672 5.856522762753633 15.801978502887177 12.057624579826145 2 2 0
1154 116 4 0.404798 6.737190101103826 16.74102229447855 11.42525950111766 2 2 0