LAMMPS data file via write_data, version 29 Sep 2021, timestep = 1000000

1620 atoms
20 atom types
1458 bonds
9 bond types
1620 angles
10 angle types
1944 dihedrals
12 dihedral types

0 30.025 xlo xhi
0 30.026 ylo yhi
0 30.026 zlo zhi
1.83856223955992e-15 1.83856223955992e-15 1.83856223955992e-15 xy xz yz

Masses

1 12.01
2 12.01
3 12.01
4 12.01
5 12.01
6 12.01
7 14.01
8 14.01
9 14.01
10 14.01
11 0.0001
12 0.0001
13 0.0001
14 0.0001
15 0.0001
16 0.0001
17 0.0001
18 0.0001
19 0.0001
20 0.0001

Bond Coeffs # harmonic

1 400 1.426
2 400 1.426
3 400 1.426
4 400 1.426
5 549 1.34
6 650 1.16
7 650 1.16
8 650 1.16
9 650 1.16

Angle Coeffs # harmonic

1 70 116.8
2 70 116.8
3 70 121.6
4 70 121.6
5 70 121.6
6 70 121.6
7 70 178.9
8 70 178.9
9 70 178.9
10 70 178.9

Dihedral Coeffs # opls

1 0 0 0 0
2 0 0 0 0
3 0 0 0 0
4 0 0 0 0
5 0 0 0 0
6 0 0 0 0
7 0 0 0 0
8 0 0 0 0
9 0 14 0 0
10 0 14 0 0
11 0 14 0 0
12 0 14 0 0

Atoms # full

580 58 10 -0.358962 13.77241818195685 2.8830210495624358 6.0930096726604965 1 -2 1
1597 160 5 0.404798 1.6728859749819212 6.652847321062072 4.830986119368184 1 -1 4
529 53 9 -0.358962 11.735331799156407 1.3755858607213554 4.519722548101733 3 3 2
1620 162 10 -0.358962 8.64934810130629 1.9254745181905402 3.783750646392788 -1 2 1
1522 153 3 0.404798 10.224415755503786 5.252833430490618 1.700563285027218 0 0 3
845 85 8 -0.358962 9.391860035802003 9.091748376306427 6.157056549560908 3 1 -1
78 8 6 0.404798 7.289946876314887 0.7423288924300842 6.226631930942806 2 3 1
1527 153 5 0.404798 10.180445358235438 8.943757947845496 0.9767842159119502 0 0 3
1599 160 9 -0.358962 1.8462162195958876 7.396500821344276 3.9257504312946487 1 -1 4
1080 108 10 -0.358962 14.78926816158261 6.6072694590791565 4.037261909056667 2 2 1
1528 153 6 0.404798 9.202984789101794 7.849427181704279 2.8765857213193016 0 0 3
262 27 3 0.404798 6.636081760723813 6.136557691716764 7.07463124660138 1 -7 2
844 85 4 0.404798 9.38620608897526 9.49308548293107 7.259821612237981 3 1 -1
530 53 10 -0.358962 12.845187270575767 4.015974787048584 1.3835512264522012 3 3 2
121 13 1 -0.091672 2.459663506268316 3.3331230889968126 0.7982919569987262 4 -1 0
1076 108 2 -0.091672 14.461874394829602 9.20432282546424 4.239833380822783 2 2 1
1078 108 6 0.404798 14.628983804348852 7.729676427113369 4.070626822888022 2 2 1
1523 153 7 -0.358962 10.021998781247094 4.209056309741325 2.140065638547067 0 0 3
1559 156 9 -0.358962 3.405287115219684 8.725605326907507 6.3308932201318004 1 1 0
528 53 6 0.404798 13.282610510386807 3.178142989412155 2.1131566178339303 3 3 2
527 53 5 0.404798 12.60959790836904 1.8092520382097053 3.973281638811722 3 3 2
263 27 7 -0.358962 5.799851979814804 6.79839907991009 6.617000016104667 1 -7 2
507 51 5 0.404798 5.682406868651431 2.2489910974266394 0.7125851813695702 2 0 -1
577 58 5 0.404798 12.359272213857777 6.107816121549963 5.585320206413823 1 -2 1
504 51 4 0.404798 6.132576693857048 4.537370602101613 2.501373230289722 2 0 -1
1252 126 3 0.404798 4.859136442259791 9.015487200146744 3.181109859080151 5 0 -2
124 13 4 0.404798 2.863170629804873 3.639127876417323 2.0819191613946653 4 -1 0
129 13 9 -0.358962 2.4616869992675063 0.017086132251622085 1.8937800163733305 4 -1 0
1105 111 8 -0.358962 1.6997715708627605 0.8678399229014648 4.818987585098856 2 2 2
505 51 8 -0.358962 5.978140404519448 4.66959116691345 3.6354059664792393 2 0 -1
1526 153 2 -0.091672 9.986881364682151 7.7111407449778175 1.7081804478731837 0 0 3
79 8 9 -0.358962 4.978786768263342 1.9517737416192895 4.090231097582611 2 3 1
576 58 2 -0.091672 13.037701817547864 5.371100020395143 6.593219721666785 1 -2 1
526 53 2 -0.091672 13.644876508402701 2.2830415923311964 3.1199739198303127 3 3 2
506 51 2 -0.091672 6.314391307499155 3.4648393618523032 0.3260824642977823 2 0 -1
268 27 6 0.404798 8.710968289487845 5.334738306129744 5.295083804610683 1 -7 2
1529 153 9 -0.358962 10.43857882194579 9.908810274850032 0.3429112058302261 0 0 3
521 53 1 -0.091672 14.910715255404034 1.829640263268394 3.318837272000586 3 3 2
1594 160 4 0.404798 0.46042598092767584 7.296425308920573 7.116670852125448 1 -1 4
126 13 2 -0.091672 2.2392749416449633 2.069327268125148 0.395526880435729 4 -1 0
125 13 8 -0.358962 3.306628334554032 3.9721877168846658 3.0860808628196743 4 -1 0
1617 162 5 0.404798 8.545454888409735 0.838967536104563 0.45033528912964105 -1 2 1
127 13 5 0.404798 2.366291097960509 0.9610107999012248 1.2373395537221736 4 -1 0
808 81 6 0.404798 6.228777317169544 9.653536541046288 0.29141342496041955 1 -2 5
1521 153 1 -0.091672 10.54455214160297 6.567058301510351 1.2370981982157985 0 0 3
270 27 10 -0.358962 8.737118183525942 5.534720018939233 4.13478240270896 1 -7 2
1618 162 6 0.404798 8.672993862480524 1.207872553620554 2.859793650363327 -1 2 1
1530 153 10 -0.358962 8.469806083336326 8.059027677238157 3.734336924695799 0 0 3
501 51 1 -0.091672 6.463060681839106 4.565854817051026 1.1329644308255626 2 0 -1
77 8 5 0.404798 5.566100822881518 1.9028779778872102 5.091838505678971 2 3 1
502 51 3 0.404798 6.881628346242754 5.74721968119138 0.444922676708755 2 0 -1
1077 108 5 0.404798 13.101506136042257 9.735092075304276 4.219200339691807 2 2 1
1253 126 7 -0.358962 4.454616722504858 7.990180685570372 2.8610504533755803 5 0 -2
578 58 6 0.404798 13.442546241185347 4.00962920652458 6.240508676944297 1 -2 1
509 51 9 -0.358962 5.293345665855916 1.1976968031001727 1.0018750036753798 2 0 -1
579 58 9 -0.358962 11.780001944568305 6.731584771433026 4.8372881969417305 1 -2 1
76 8 2 -0.091672 6.314772610695349 1.783440601510519 6.252258479888583 2 3 1
1616 162 2 -0.091672 8.748092961018214 0.2846521215830579 1.7795092072597385 -1 2 1
1598 160 6 0.404798 2.2724879487409497 4.499423409145338 5.653056414951745 1 -1 4
1600 160 10 -0.358962 2.6913006290801973 3.408363793568384 5.6151858919531525 1 -1 4
1596 160 2 -0.091672 1.7374362462817368 5.744438040223085 5.859318833158305 1 -1 4
1557 156 5 0.404798 2.9266372342657534 9.59810333338184 5.806386484428911 1 1 0
266 27 2 -0.091672 8.787750182100018 5.1275002990425005 6.708027422050183 1 -7 2
1591 160 1 -0.091672 1.1487489937562168 6.0058817824885615 6.997054116686791 1 -1 4
810 81 10 -0.358962 6.860329459996692 9.807006239166464 1.254886113343462 1 -2 5
71 8 1 -0.091672 6.180905055221359 2.526730672205125 7.368175534261916 2 3 1
1524 153 4 0.404798 11.51375942068185 6.8411941228216175 0.1852529985357284 0 0 3
267 27 5 0.404798 9.761109469898258 4.256667253675155 7.185636998237281 1 -7 2
155 16 8 -0.358962 0.18661890914272466 3.470734631848653 1.9385545564906337 -1 0 2
1560 156 10 -0.358962 1.093652351009126 9.793928777285284 2.8293500739563933 1 1 0
269 27 9 -0.358962 10.608683201539703 3.521188807831317 7.4191653042805035 1 -7 2
774 78 4 0.404798 14.051444832345188 4.19432512527461 11.982808896979904 3 0 3
675 68 8 -0.358962 0.4243471325765441 8.126907194040816 13.296294709858534 3 1 -1
75 8 8 -0.358962 4.350525999945733 4.25327779125984 7.658271848673589 2 3 1
775 78 8 -0.358962 14.540466688130877 3.1638140031053306 11.83946419308778 3 0 3
780 78 10 -0.358962 13.527980872478391 8.869141925656537 13.34143142560613 3 0 3
673 68 7 -0.358962 4.358252702476309 6.941874003396359 14.609802228101266 3 1 -1
416 42 2 -0.091672 3.306252494033226 0.048594152941275906 11.37557466182721 2 3 3
672 68 3 0.404798 3.322916470226897 6.609149443431365 14.171400222859083 3 1 -1
1541 155 1 -0.091672 10.269814046024727 0.3540577626812562 13.767173937679557 0 0 -2
72 8 3 0.404798 7.009717650768819 2.2315495708020827 8.480922024290871 2 3 1
1373 138 7 -0.358962 5.740603779850603 8.968829260908064 12.008188547040035 2 2 2
778 78 6 0.404798 13.860041970916134 7.85851746619095 12.850041563004012 3 0 3
1543 155 7 -0.358962 12.39633566628014 1.773248586692341 14.477218847140863 0 0 -2
1379 138 9 -0.358962 0.3503903722753382 7.600277463611209 9.942230543013517 2 2 2
414 42 4 0.404798 2.2251343501033567 2.0871839780901738 10.848637153327445 2 3 3
1374 138 4 0.404798 4.0142810717322535 6.404875953465636 10.501026741809163 2 2 2
849 85 9 -0.358962 10.009628029875474 6.693928152715721 9.458023995747352 3 1 -1
1403 141 7 -0.358962 5.9269068547585135 4.219119126039487 14.469770429081056 1 2 4
571 58 1 -0.091672 13.467857268278388 5.9796365246381145 7.745093213573976 1 -2 1
412 42 3 0.404798 4.590414164466235 2.060304872096929 11.156319483937988 2 3 3
1550 155 10 -0.358962 11.565799382376634 1.250565687269083 10.61646336640742 0 0 -2
741 75 1 -0.091672 9.026623210872028 5.512819236778864 13.93184277356538 -2 1 0
769 77 9 -0.358962 13.473461234555314 9.785113577195615 10.493479484067313 -1 -1 -1
678 68 6 0.404798 2.665224012876405 3.782900986163566 14.044366237288727 3 1 -1
742 75 3 0.404798 8.609214455874834 4.229827474377482 13.52197921609014 -2 1 0
1546 155 2 -0.091672 10.051753495552516 0.12351483793917692 12.4508143870088 0 0 -2
1376 138 2 -0.091672 2.585008396480303 8.485062369396212 10.993009034158948 2 2 2
575 58 8 -0.358962 12.908667125854224 8.358695872587083 8.544824668439365 1 -2 1
746 75 2 -0.091672 10.09108236089998 5.723910917789721 14.761507859681267 -2 1 0
1548 155 6 0.404798 10.87926531984962 0.8492877849127424 11.462646751229407 0 0 -2
745 75 8 -0.358962 7.807939555382831 7.266722326904424 12.452940942057387 -2 1 0
744 75 4 0.404798 8.375265859284873 6.497928030356111 13.138404245085837 -2 1 0
1592 160 3 0.404798 0.998927923634827 4.927685692706088 7.920028977386132 1 -1 4
747 75 5 0.404798 10.606857210347995 7.061570772386878 14.944470213708724 -2 1 0
415 42 8 -0.358962 1.196158652797713 2.600814157709024 10.526926542977879 2 3 3
771 78 1 -0.091672 13.475108862357729 5.488664698496071 12.117810064643725 3 0 3
776 78 2 -0.091672 14.266027556756658 6.534714435861011 12.410435753411488 3 0 3
674 68 4 0.404798 1.1127962752233354 7.210816452460115 13.520105010442215 3 1 -1
413 42 7 -0.358962 5.596020853879376 2.630324897524471 11.301905731664524 2 3 3
847 85 5 0.404798 9.648914588297135 7.788617104664597 9.47917596524391 3 1 -1
574 58 4 0.404798 13.128259056426776 7.296609681633821 8.158932674466667 1 -2 1
1542 155 3 0.404798 11.427536177088754 1.1257203040402795 14.16815125885303 0 0 -2
1375 138 8 -0.358962 4.274772475539966 5.2961379866019485 10.221378348677126 2 2 2
1371 138 1 -0.091672 3.7628586473243466 7.790202197804596 10.932276063321305 2 2 2
1372 138 3 0.404798 4.854195253876868 8.445966491667749 11.503419321149478 2 2 2
1377 138 5 0.404798 1.3774524968156228 7.956550442135947 10.382032131377294 2 2 2
848 85 6 0.404798 9.468085286616693 9.75636599388554 10.905932332259297 3 1 -1
743 75 7 -0.358962 8.32308107594815 3.132595505962047 13.418678685963206 -2 1 0
572 58 3 0.404798 14.375101475902595 5.264208903045366 8.570786157853746 1 -2 1
676 68 2 -0.091672 1.7461678368201872 4.8431273210142685 13.721013158238533 3 1 -1
411 42 1 -0.091672 3.400999600087332 1.3553210729981362 11.09560759151261 2 3 3
1593 160 7 -0.358962 0.9523322961538371 3.9536140945221345 8.545380903122492 1 -1 4
264 27 4 0.404798 7.973915527861482 5.056568189765881 8.918550932414007 1 -7 2
773 78 7 -0.358962 10.833863031541767 5.679290788129059 11.95593023867052 3 0 3
846 85 2 -0.091672 9.4375567170525 9.193108488811129 9.600942364358561 3 1 -1
265 27 8 -0.358962 8.090034458512918 4.8826663710596385 10.07765211844402 1 -7 2
677 68 5 0.404798 0.4730984139162113 4.417547661655599 13.167834507342205 3 1 -1
772 78 3 0.404798 11.975504159265038 5.697208415357531 12.067111326114238 3 0 3
680 68 10 -0.358962 3.461065003695222 2.919644826524109 14.282331143927928 3 1 -1
671 68 1 -0.091672 2.0586652451787115 6.182607492484678 13.760221156961567 3 1 -1
1583 159 7 -0.358962 0.965762479476559 0.6050710795040909 14.21372564707223 1 4 -4
1378 138 6 0.404798 2.538347439957297 9.779987105372614 11.500931902010244 2 2 2
73 8 7 -0.358962 7.598303578419397 1.9384738898980298 9.446038622830075 2 3 1
210 21 10 -0.358962 14.561741568825795 2.1392112120744904 8.457501451408062 1 0 0
135 14 8 -0.358962 8.602402673432838 9.955894112227416 14.809256786485038 -2 -2 -6
261 27 1 -0.091672 7.846384269555763 5.425256119166785 7.536612668344717 1 -7 2
1293 130 7 -0.358962 5.8216531078862745 9.868252792202236 7.65885952264996 -2 0 0
74 8 4 0.404798 5.198254048140382 3.4636156507538067 7.5417958488193335 2 3 1
660 66 10 -0.358962 14.842301375448859 2.8764174203483406 22.193148414287013 -2 1 -3
750 75 10 -0.358962 11.266302118855302 3.8128651884278946 15.997745460273052 -2 1 0
892 90 3 0.404798 12.842402267218942 5.600320725114746 17.65807943127097 0 2 -2
1498 150 6 0.404798 0.49649613319437713 5.0176466141849945 21.925288410810857 -3 -1 -1
897 90 5 0.404798 12.049676809015459 3.430129735521688 20.575843942685733 0 2 -2
913 92 7 -0.358962 14.814025383923054 4.225817881585353 15.174610798081806 -2 3 1
99 10 9 -0.358962 0.8608558805509298 4.153706880382057 17.096497396191793 3 0 0
1500 150 10 -0.358962 1.3770544601709915 4.249023976962967 21.71150769460096 -3 -1 -1
7 1 5 0.404798 14.581936918721272 7.455807904195187 21.360015940138357 1 0 -1
1410 141 10 -0.358962 7.810237094428448 2.6412184116078934 17.525619264792923 1 2 4
1142 115 3 0.404798 8.098630645967939 1.9835733653146264 22.21423815828916 0 0 0
137 14 5 0.404798 9.234663624660003 8.587169227829861 18.288489423235504 -2 -2 -6
1141 115 1 -0.091672 8.175091461607199 1.0676757366768825 21.16219692188779 0 0 0
790 79 10 -0.358962 4.820901625713256 6.840936577667696 21.907945420338898 3 0 -1
1401 141 1 -0.091672 6.460105933956652 5.631403652642975 16.545722426771707 1 2 4
330 33 10 -0.358962 5.1314507941106005 1.235928516912698 15.42302286292449 2 -1 3
896 90 2 -0.091672 12.118471674389108 4.528687467708947 19.657126733977073 0 2 -2
1217 122 5 0.404798 1.6038803693514225 8.041862267845863 17.81442012166881 -1 -2 -3
1405 141 8 -0.358962 6.430573894143558 8.249250864305896 16.346381490074904 1 2 4
1402 141 3 0.404798 6.094508631091369 4.814875369516498 15.429163579254606 1 2 4
9 1 9 -0.358962 14.554695932921978 7.115530157928106 20.24164309187767 1 0 -1
891 90 1 -0.091672 12.753368278516234 4.4615851928967905 18.458078882101397 0 2 -2
1219 122 9 -0.358962 2.592879254311199 7.961317543317202 17.17752994216394 -1 -2 -3
98 10 6 0.404798 3.306247684504408 5.818494635820968 18.98471662161832 3 0 0
92 10 3 0.404798 4.159496720110036 3.727333754981891 20.502387989593466 3 0 0
1408 141 6 0.404798 7.449220240267482 3.749018728833308 17.564958732381275 1 2 4
1170 117 10 -0.358962 11.637232060752023 9.10515703775366 20.87121733325425 3 3 0
97 10 5 0.404798 1.6180340460073024 4.359448243167642 17.942760464961793 3 0 0
900 90 10 -0.358962 10.945720856259221 6.709939612037881 20.3333534343724 0 2 -2
100 10 10 -0.358962 3.985607684810198 6.751477230051943 19.065002346317502 3 0 0
139 14 9 -0.358962 10.083971896087057 7.7697326644323255 18.219077589560758 -2 -2 -6
1404 141 4 0.404798 6.394117111870026 7.071831508668186 16.476599094288883 1 2 4
91 10 1 -0.091672 3.0601513210441453 3.53679036793525 19.661770172829996 3 0 0
787 79 5 0.404798 4.380360815497078 9.974444972606642 20.421474063189535 3 0 -1
1168 117 6 0.404798 12.349980189086045 9.517253272256832 20.049655453772644 3 3 0
95 10 8 -0.358962 1.989882455319312 1.2316916989180462 19.466992428735963 3 0 0
1144 115 4 0.404798 9.308371461684596 1.2028289914996253 20.321099605479866 0 0 0
1146 115 2 -0.091672 7.264064263734082 0.07495581682990395 21.056277721421473 0 0 0
1409 141 9 -0.358962 7.691381043331923 6.530676087524991 19.600000500873854 1 2 4
1216 122 2 -0.091672 0.40199514339968945 7.999625592959498 18.59271907580318 -1 -2 -3
289 29 9 -0.358962 8.557401833502578 7.896420010686757 21.856992714241013 5 -2 2
328 33 6 0.404798 4.97462281970062 0.09710658690676567 15.724529326325097 2 -1 3
895 90 8 -0.358962 14.033140217468745 2.3463514655104896 17.78818024454228 0 2 -2
788 79 6 0.404798 4.422357624400318 7.917671815981295 21.697796085445695 3 0 -1
136 14 2 -0.091672 8.26258919643892 9.66960468041143 18.297243400196542 -2 -2 -6
894 90 4 0.404798 13.376688762975062 3.252909072941064 18.043213097117427 0 2 -2
94 10 4 0.404798 2.5519451486224742 2.233875508131532 19.56010248027804 3 0 0
898 90 6 0.404798 11.515686408211666 5.757751616383848 20.08305688261539 0 2 -2
893 90 7 -0.358962 12.949239488472257 6.480102807078783 16.92985720128641 0 2 -2
899 90 9 -0.358962 11.897018859351537 2.600297974983981 21.380487613345192 0 2 -2
93 10 7 -0.358962 5.075095404583777 3.837898294041669 21.172490676025973 3 0 0
1407 141 5 0.404798 7.4891366099115215 5.880035063129877 18.665033514126616 1 2 4
96 10 2 -0.091672 2.6387063643999755 4.581847159154579 18.928502964649994 3 0 0
786 79 2 -0.091672 3.983290414455534 9.293878337591792 21.599532132779842 3 0 -1
1145 115 8 -0.358962 10.215579816961046 1.3005234305347244 19.62678837784096 0 0 0
1406 141 2 -0.091672 7.099077014923725 5.082196607152608 17.57968097273856 1 2 4
748 75 6 0.404798 10.716973163272774 4.68567011112851 15.498348637536447 -2 1 0
138 14 6 0.404798 7.850112324549005 10.00447269164908 19.63004382706233 -2 -2 -6
1425 143 8 -0.358962 13.868190352710696 0.46642789865057915 20.171091393976557 -5 -2 0
1220 122 10 -0.358962 0.7917920485455024 8.820058424495112 21.02453094437431 -1 -2 -3
920 92 10 -0.358962 14.96294439858464 0.3898380294262026 16.22246398491064 -2 3 1
1218 122 6 0.404798 0.6769069096571505 8.367171122449735 19.93783791573357 -1 -2 -3
749 75 9 -0.358962 11.089427049221827 8.154238569439512 15.055556176024915 -2 1 0
1221 123 1 -0.091672 10.571475073098968 2.5370256617889755 25.203570514791682 1 -1 1
130 13 10 -0.358962 1.467451893261106 1.4347103263825076 28.031286777497943 4 -1 -1
122 13 3 0.404798 2.606869998925514 4.42872399959836 29.896245652263058 4 -1 -1
6 1 2 -0.091672 14.633384396585473 7.845517364752618 22.723226737442037 1 0 -1
167 17 5 0.404798 11.372302876736573 3.8496456083667705 28.75351725523205 2 0 -1
284 29 4 0.404798 6.543389481300502 7.650383950165817 24.877718713250122 5 -2 2
8 1 6 0.404798 13.52027338065645 8.497574511255332 23.298433977586754 1 0 -1
161 17 1 -0.091672 12.956535972750943 1.9524725681256883 28.925292448609337 2 0 -1
1239 124 9 -0.358962 4.040243531278511 2.7771315022369567 23.414922839495993 0 0 -1
1240 124 10 -0.358962 7.507037759621042 4.859014074186869 24.8525720444948 0 0 -1
1228 123 6 0.404798 12.027787964293351 0.9225505714324208 26.302107729617333 1 -1 1
281 29 1 -0.091672 7.929155242970985 7.493159586666096 25.263343817335137 5 -2 2
1226 123 2 -0.091672 11.817946135556147 2.0860229243356234 25.518317508388684 1 -1 1
1227 123 5 0.404798 13.03695150782384 2.6926302488698237 25.02069557096771 1 -1 1
1237 124 5 0.404798 4.47259081460784 3.54352926779949 24.177788184815967 0 0 -1
1525 153 8 -0.358962 12.342761206430675 7.122760313391596 29.396395788601495 0 0 2
162 17 3 0.404798 14.137444878168354 1.3206832326336218 28.674252043080408 2 0 -1
123 13 7 -0.358962 2.775726056283513 5.254519154050533 29.109957060156407 4 -1 -1
1232 124 3 0.404798 4.883426418845743 5.831295787049661 27.04627423082211 0 0 -1
965 97 8 -0.358962 0.4581115517622063 1.9886345166982486 24.835162658173175 2 1 -3
1224 123 4 0.404798 10.336561394624814 3.725544968129813 24.45928828421468 1 -1 1
1234 124 4 0.404798 2.8481490042390427 4.597897808155205 26.29731841776559 0 0 -1
290 29 10 -0.358962 11.288627767899321 7.033536833948798 25.09395201885465 5 -2 2
286 29 2 -0.091672 8.947320457109173 7.420539648084452 24.38303243150205 5 -2 2
288 29 6 0.404798 10.211302690417162 7.171719181517327 24.80850181632112 5 -2 2
164 17 4 0.404798 11.939372801905883 1.070455230476528 29.461121524882007 2 0 -1
169 17 9 -0.358962 10.346262497488539 4.220141952186181 29.013341180790235 2 0 -1
283 29 7 -0.358962 8.27071761561893 6.933270982840425 27.774922500293293 5 -2 2
1236 124 2 -0.091672 4.949560630167405 4.354968338744078 25.20099302270305 0 0 -1
1238 124 6 0.404798 6.400435990693006 4.651965409660282 25.061805791369743 0 0 -1
10 1 10 -0.358962 12.599265459932948 8.9731276381243 23.85921115151779 1 0 -1
128 13 6 0.404798 1.8657060830299004 1.7883479354258378 29.08248173718047 4 -1 -1
806 81 2 -0.091672 5.543218425144501 9.471222813206948 29.063498236555485 1 -2 4
166 17 2 -0.091672 12.690225106236799 3.2068597440040616 28.52452521133016 2 0 -1
1302 131 3 0.404798 4.597663328246285 0.7446716163036747 26.9811195647018 -3 0 -1
153 16 7 -0.358962 0.04643084017254934 7.300231700166145 29.844324903202168 -1 0 1
1225 123 8 -0.358962 10.359533189749758 4.604976747386321 23.70591686566344 1 -1 1
170 17 10 -0.358962 14.484261715809497 4.571425430260653 27.27778250177292 2 0 -1
1229 123 9 -0.358962 14.071139987062576 3.1464149122705543 24.77641454247966 1 -1 1
168 17 6 0.404798 13.662585160281663 3.970157487120934 27.84235077023427 2 0 -1
508 51 6 0.404798 6.731113560493445 3.602909008018141 28.99365773773815 2 0 -2
1303 131 7 -0.358962 4.8015448308418955 1.6834522984220246 27.71947848705819 -3 0 -1
1222 123 3 0.404798 9.456147880907729 1.915285129285927 25.76456441074049 1 -1 1
686 69 2 -0.091672 14.868844368977378 9.95072822800587 28.87383195451173 1 -2 -1
687 69 5 0.404798 14.792304852901072 8.633383886023662 29.344266205068298 1 -2 -1
783 79 7 -0.358962 2.2968552027105154 8.413952555970054 24.599446499708602 3 0 -1
282 29 3 0.404798 8.137035142021976 7.212448525508647 26.673988830756603 5 -2 2
781 79 1 -0.091672 3.2592927268458247 9.842408970285454 22.60226262678832 3 0 -1
1231 124 1 -0.091672 4.239569105904597 4.876039832629236 26.19445285023518 0 0 -1
720 72 10 -0.358962 1.93986375263407 9.436125303662282 27.16378638550114 -1 1 -2
1235 124 8 -0.358962 1.701367080579614 4.452622515876314 26.363360416340534 0 0 -1
1223 123 7 -0.358962 8.489323900404107 1.3978995493077573 26.122077671898406 1 -1 1
1283 129 7 -0.358962 11.008367228793654 9.04615505984138 26.81953037353882 -1 1 -2
287 29 5 0.404798 8.713888660097446 7.631668478347051 22.9721005676256 5 -2 2
1233 124 7 -0.358962 5.409909435743709 6.673656194514111 27.64706356370481 0 0 -1
689 69 9 -0.358962 14.82063872270134 7.488180372466255 29.67072033448986 1 -2 -1
782 79 3 0.404798 2.7827565632553726 9.064300961311794 23.712263293397154 3 0 -1
285 29 8 -0.358962 5.42755059856652 7.851939639165268 24.630323568053505 5 -2 2
809 81 9 -0.358962 3.2853296270736134 8.116414765029434 29.169243190946638 1 -2 4
1619 162 9 -0.358962 8.437992222655934 1.1913824335235772 29.36896152827307 -1 2 0
807 81 5 0.404798 4.321193191978707 8.689925936547313 29.109467984096487 1 -2 4
1143 115 7 -0.358962 7.934118591167927 2.6971610827520474 23.07924612486313 0 0 0
510 51 10 -0.358962 7.04162041947011 3.6140379909345945 27.872225590949604 2 0 -2
165 17 8 -0.358962 11.098567377259355 0.4044946314825178 29.775611213059502 2 0 -1
801 81 1 -0.091672 5.955114237802713 10.008008516640903 27.898303010733844 1 -2 4
503 51 7 -0.358962 7.270334302002904 6.673924980865323 29.90688100294949 2 0 -2
870 87 10 -0.358962 14.451939914490485 14.484488613829583 0.3985646536961522 1 -1 -2
1466 147 2 -0.091672 11.639173221527571 16.879767563274537 4.078400346101238 0 0 -1
1461 147 1 -0.091672 10.313818797696609 16.950951391284956 3.7936944741500107 0 0 -1
1469 147 9 -0.358962 13.051317564210311 18.91702231292232 4.702108421108483 0 0 -1
1558 156 6 0.404798 1.5632381743572745 10.200588759612149 3.7980050904529605 1 1 0
259 26 9 -0.358962 3.9704420927794004 17.583514810768666 0.7196842166798253 1 1 1
1260 126 10 -0.358962 3.2986966052412803 11.370987562219447 0.8228333895511082 5 0 -2
1470 147 10 -0.358962 12.920434021933241 14.619544633998775 3.7564761267562083 0 0 -1
400 40 10 -0.358962 10.592457219710928 12.323022016319815 4.233564939471756 0 1 0
1294 130 4 0.404798 7.009884331516749 13.024387787282004 6.692114968875663 -2 0 0
1257 126 5 0.404798 5.044753118375246 12.798163238418761 3.350644169191546 5 0 -2
1255 126 8 -0.358962 6.872525122236321 10.554653071247706 5.42425160880867 5 0 -2
257 26 5 0.404798 4.452265510347604 18.48259578947566 1.3062963257371372 1 1 1
1468 147 6 0.404798 12.337502956246606 15.636188980164658 3.8820428718956133 0 0 -1
1464 147 4 0.404798 9.673588822472544 18.137644532969965 3.714867928375132 0 0 -1
397 40 5 0.404798 10.726903137912975 14.740698162078921 6.642287791091556 0 1 0
392 40 3 0.404798 12.758753103244006 11.571916180891696 7.049371201435789 0 1 0
398 40 6 0.404798 10.851135727598688 12.882158628594354 5.2332406303110455 0 1 0
1134 114 4 0.404798 7.7599541445470654 12.976749000100304 1.5694932098075454 0 -2 6
1554 156 4 0.404798 2.759651431395649 12.090680123355167 6.903583673950314 1 1 0
393 40 7 -0.358962 13.326807821583717 10.53750311161166 6.868231785606797 0 1 0
800 80 10 -0.358962 12.772909641991312 18.512554151021206 1.6199153920646623 0 1 0
318 32 6 0.404798 2.1451291143993325 15.189792181301224 3.0956319736569697 1 -2 4
1259 126 9 -0.358962 5.354907855082232 13.881518961561655 3.5686082073263163 5 0 -2
1079 108 9 -0.358962 12.060514051032863 10.286735774455327 4.084732200555922 2 2 1
1465 147 8 -0.358962 9.14358803698122 19.12674982306705 3.6050813362186727 0 0 -1
1256 126 2 -0.091672 4.6881188369172735 11.445138968176632 2.975747779620268 5 0 -2
1135 114 8 -0.358962 8.039007551420825 12.235155172855455 2.402994882408349 0 -2 6
311 32 1 -0.091672 2.774813827833548 16.73250266399507 4.836852157526677 1 -2 4
254 26 4 0.404798 7.157304201750038 18.956890352889385 1.2388135769732351 1 1 1
798 80 6 0.404798 13.3425915601136 19.197679817453498 0.8809193810627973 0 1 0
650 65 10 -0.358962 0.2612131279356698 14.4312557008352 7.217747432020701 3 -1 1
1463 147 7 -0.358962 8.836100868036098 14.983026672190544 3.1071471737071272 0 0 -1
1345 135 8 -0.358962 14.22165977899563 17.16916510424673 6.714227708163788 1 -1 4
255 26 8 -0.358962 7.750389411949878 18.29919715530115 0.5111854294232111 1 1 1
889 89 9 -0.358962 1.3772658783158982 17.78283669719823 0.3693355022560792 1 -1 -2
317 32 5 0.404798 0.4905473878298153 16.586191106123795 4.308718848815541 1 -2 4
256 26 2 -0.091672 5.016431930504703 19.490008498769374 2.072096101212441 1 1 1
1556 156 2 -0.091672 2.1856168519086387 10.603782022811536 5.110822536917967 1 1 0
399 40 9 -0.358962 10.373276218619685 15.796699697301804 6.926666494499537 0 1 0
1467 147 5 0.404798 12.433565274473786 18.006066400560123 4.469644513328998 0 0 -1
312 32 3 0.404798 4.140614493695988 16.347479214245702 4.813073858318625 1 -2 4
316 32 2 -0.091672 1.8273208083858303 16.185461728322487 4.052320528541733 1 -2 4
320 32 10 -0.358962 2.4632975570776323 14.269687675101872 2.4296735823797313 1 -2 4
1551 156 1 -0.091672 2.1717537644899982 11.79813900657606 5.625059619757191 1 1 0
251 26 1 -0.091672 6.317859563453334 19.73402289445416 2.029186524256883 1 1 1
1462 147 3 0.404798 9.455269575723587 15.846284538495361 3.3899165303896264 0 0 -1
396 40 2 -0.091672 11.341943806481366 13.490462025550602 6.451317775650673 0 1 0
314 32 4 0.404798 2.4999738518091466 17.600498264075696 5.9397798564879585 1 -2 4
1553 156 7 -0.358962 0.5294242136401868 13.611290966705221 4.600243650643188 1 1 0
1295 130 8 -0.358962 7.5950201354629945 13.462056858390103 5.843542869164795 -2 0 0
300 30 10 -0.358962 5.0699718644524925 19.49163540277805 5.9768843334938975 -1 1 1
1258 126 6 0.404798 3.9073970881213542 11.446322515521846 1.804039860224236 5 0 -2
1131 114 1 -0.091672 7.5533114901124305 13.831313775241817 0.42043724477646954 0 -2 6
1552 156 3 0.404798 1.2789422477527388 12.806102245802839 5.031779029613595 1 1 0
313 32 7 -0.358962 5.266970359166917 16.12838348241934 4.78165279582349 1 -2 4
1132 114 3 0.404798 6.338448937405102 14.575195786479208 0.301878313115305 0 -2 6
605 61 8 -0.358962 14.743584215795986 16.966587729958924 3.6213366330188097 -1 2 2
315 32 8 -0.358962 2.3720248171762135 18.243014412298724 6.849777858760711 1 -2 4
715 72 8 -0.358962 0.256375261056193 14.283650714622812 0.19571327617437898 -1 1 -1
1133 114 7 -0.358962 5.290774432765532 15.114600386174914 0.2556043196327518 0 -2 6
1254 126 4 0.404798 6.179609601359571 10.335610903064415 4.534822985395258 5 0 -2
1251 126 1 -0.091672 5.217288096514347 10.331580689176151 3.5169252314188344 5 0 -2
391 40 1 -0.091672 12.201970227405996 12.867794603258572 7.321547359785142 0 1 0
869 87 9 -0.358962 10.904573450800905 17.153301183395442 0.13457842835439973 1 -1 -2
1139 114 9 -0.358962 10.863196868404588 12.952395116539227 0.11051107056914208 0 -2 6
1344 135 4 0.404798 14.988112947965755 17.936249265609337 6.355686476064317 1 -1 4
1064 107 4 0.404798 11.721710038904009 17.68482018474323 12.731360109491437 1 1 3
1380 138 10 -0.358962 2.7454883104260994 10.817340527496668 11.951860244289614 2 2 2
625 63 8 -0.358962 4.109834420837448 18.3276351766737 14.549369470271216 1 4 -2
986 99 2 -0.091672 6.945969568505143 17.344307985025775 13.992786325799353 2 0 1
1296 130 2 -0.091672 6.346386952247625 13.080197161010625 9.051559078916812 -2 0 0
842 85 3 0.404798 9.720066898031176 11.399821078951108 8.913452926462847 3 1 -1
1065 107 8 -0.358962 11.334307292367628 17.10130780350821 13.665241784387568 1 1 3
731 74 1 -0.091672 0.09217188831276632 19.052146542770924 9.773593675794393 -3 1 2
739 74 9 -0.358962 2.5006387283692906 16.548795906216096 9.593210428382573 -3 1 2
843 85 7 -0.358962 10.021815828400497 12.461102870315676 9.10965221109117 3 1 -1
1084 109 4 0.404798 10.338899891016224 14.7311365292139 11.505052503731616 -3 -2 0
1067 107 5 0.404798 13.652694311362968 19.495062545102225 12.845098981916653 1 1 3
767 77 5 0.404798 14.537326602159524 10.11031567129709 10.717871977085226 -1 -1 -1
1363 137 7 -0.358962 0.3625514017321022 11.962437168825081 13.864443780766958 1 0 3
241 25 1 -0.091672 0.5419176453985132 14.450791345807744 11.701628857790327 -2 1 2
1063 107 7 -0.358962 10.916151212674178 17.817962944872775 9.37690222731025 1 1 3
736 74 2 -0.091672 1.256796990108396 18.706463182017895 10.260233722461052 -3 1 2
737 74 5 0.404798 1.9302300391877876 17.533034558885248 9.912769233769875 -3 1 2
395 40 8 -0.358962 12.904722272483829 14.086188362034154 9.47872172194565 0 1 0
1061 107 1 -0.091672 12.110214390775429 18.32452470865774 11.525944601370231 1 1 3
243 25 7 -0.358962 0.284423574573491 11.914140049085676 11.314210289044116 -2 1 2